# vtk DataFile Version 2.0 
Quadtree Mesh 
ASCII 
DATASET UNSTRUCTURED_GRID 
POINTS 121 double 
-1.000000e+00 -1.000000e+00 0.000000e+00
-8.000000e-01 -1.000000e+00 0.000000e+00
-6.000000e-01 -1.000000e+00 0.000000e+00
-4.000000e-01 -1.000000e+00 0.000000e+00
-2.000000e-01 -1.000000e+00 0.000000e+00
0.000000e+00 -1.000000e+00 0.000000e+00
2.000000e-01 -1.000000e+00 0.000000e+00
4.000000e-01 -1.000000e+00 0.000000e+00
6.000000e-01 -1.000000e+00 0.000000e+00
8.000000e-01 -1.000000e+00 0.000000e+00
1.000000e+00 -1.000000e+00 0.000000e+00
-1.000000e+00 -8.000000e-01 0.000000e+00
-8.000000e-01 -8.000000e-01 0.000000e+00
-6.000000e-01 -8.000000e-01 0.000000e+00
-4.000000e-01 -8.000000e-01 0.000000e+00
-2.000000e-01 -8.000000e-01 0.000000e+00
0.000000e+00 -8.000000e-01 0.000000e+00
2.000000e-01 -8.000000e-01 0.000000e+00
4.000000e-01 -8.000000e-01 0.000000e+00
6.000000e-01 -8.000000e-01 0.000000e+00
8.000000e-01 -8.000000e-01 0.000000e+00
1.000000e+00 -8.000000e-01 0.000000e+00
-1.000000e+00 -6.000000e-01 0.000000e+00
-8.000000e-01 -6.000000e-01 0.000000e+00
-6.000000e-01 -6.000000e-01 0.000000e+00
-4.000000e-01 -6.000000e-01 0.000000e+00
-2.000000e-01 -6.000000e-01 0.000000e+00
0.000000e+00 -6.000000e-01 0.000000e+00
2.000000e-01 -6.000000e-01 0.000000e+00
4.000000e-01 -6.000000e-01 0.000000e+00
6.000000e-01 -6.000000e-01 0.000000e+00
8.000000e-01 -6.000000e-01 0.000000e+00
1.000000e+00 -6.000000e-01 0.000000e+00
-1.000000e+00 -4.000000e-01 0.000000e+00
-8.000000e-01 -4.000000e-01 0.000000e+00
-6.000000e-01 -4.000000e-01 0.000000e+00
-4.000000e-01 -4.000000e-01 0.000000e+00
-2.000000e-01 -4.000000e-01 0.000000e+00
0.000000e+00 -4.000000e-01 0.000000e+00
2.000000e-01 -4.000000e-01 0.000000e+00
4.000000e-01 -4.000000e-01 0.000000e+00
6.000000e-01 -4.000000e-01 0.000000e+00
8.000000e-01 -4.000000e-01 0.000000e+00
1.000000e+00 -4.000000e-01 0.000000e+00
-1.000000e+00 -2.000000e-01 0.000000e+00
-8.000000e-01 -2.000000e-01 0.000000e+00
-6.000000e-01 -2.000000e-01 0.000000e+00
-4.000000e-01 -2.000000e-01 0.000000e+00
-2.000000e-01 -2.000000e-01 0.000000e+00
0.000000e+00 -2.000000e-01 0.000000e+00
2.000000e-01 -2.000000e-01 0.000000e+00
4.000000e-01 -2.000000e-01 0.000000e+00
6.000000e-01 -2.000000e-01 0.000000e+00
8.000000e-01 -2.000000e-01 0.000000e+00
1.000000e+00 -2.000000e-01 0.000000e+00
-1.000000e+00 0.000000e+00 0.000000e+00
-8.000000e-01 0.000000e+00 0.000000e+00
-6.000000e-01 0.000000e+00 0.000000e+00
-4.000000e-01 0.000000e+00 0.000000e+00
-2.000000e-01 0.000000e+00 0.000000e+00
0.000000e+00 0.000000e+00 0.000000e+00
2.000000e-01 0.000000e+00 0.000000e+00
4.000000e-01 0.000000e+00 0.000000e+00
6.000000e-01 0.000000e+00 0.000000e+00
8.000000e-01 0.000000e+00 0.000000e+00
1.000000e+00 0.000000e+00 0.000000e+00
-1.000000e+00 2.000000e-01 0.000000e+00
-8.000000e-01 2.000000e-01 0.000000e+00
-6.000000e-01 2.000000e-01 0.000000e+00
-4.000000e-01 2.000000e-01 0.000000e+00
-2.000000e-01 2.000000e-01 0.000000e+00
0.000000e+00 2.000000e-01 0.000000e+00
2.000000e-01 2.000000e-01 0.000000e+00
4.000000e-01 2.000000e-01 0.000000e+00
6.000000e-01 2.000000e-01 0.000000e+00
8.000000e-01 2.000000e-01 0.000000e+00
1.000000e+00 2.000000e-01 0.000000e+00
-1.000000e+00 4.000000e-01 0.000000e+00
-8.000000e-01 4.000000e-01 0.000000e+00
-6.000000e-01 4.000000e-01 0.000000e+00
-4.000000e-01 4.000000e-01 0.000000e+00
-2.000000e-01 4.000000e-01 0.000000e+00
0.000000e+00 4.000000e-01 0.000000e+00
2.000000e-01 4.000000e-01 0.000000e+00
4.000000e-01 4.000000e-01 0.000000e+00
6.000000e-01 4.000000e-01 0.000000e+00
8.000000e-01 4.000000e-01 0.000000e+00
1.000000e+00 4.000000e-01 0.000000e+00
-1.000000e+00 6.000000e-01 0.000000e+00
-8.000000e-01 6.000000e-01 0.000000e+00
-6.000000e-01 6.000000e-01 0.000000e+00
-4.000000e-01 6.000000e-01 0.000000e+00
-2.000000e-01 6.000000e-01 0.000000e+00
0.000000e+00 6.000000e-01 0.000000e+00
2.000000e-01 6.000000e-01 0.000000e+00
4.000000e-01 6.000000e-01 0.000000e+00
6.000000e-01 6.000000e-01 0.000000e+00
8.000000e-01 6.000000e-01 0.000000e+00
1.000000e+00 6.000000e-01 0.000000e+00
-1.000000e+00 8.000000e-01 0.000000e+00
-8.000000e-01 8.000000e-01 0.000000e+00
-6.000000e-01 8.000000e-01 0.000000e+00
-4.000000e-01 8.000000e-01 0.000000e+00
-2.000000e-01 8.000000e-01 0.000000e+00
0.000000e+00 8.000000e-01 0.000000e+00
2.000000e-01 8.000000e-01 0.000000e+00
4.000000e-01 8.000000e-01 0.000000e+00
6.000000e-01 8.000000e-01 0.000000e+00
8.000000e-01 8.000000e-01 0.000000e+00
1.000000e+00 8.000000e-01 0.000000e+00
-1.000000e+00 1.000000e+00 0.000000e+00
-8.000000e-01 1.000000e+00 0.000000e+00
-6.000000e-01 1.000000e+00 0.000000e+00
-4.000000e-01 1.000000e+00 0.000000e+00
-2.000000e-01 1.000000e+00 0.000000e+00
0.000000e+00 1.000000e+00 0.000000e+00
2.000000e-01 1.000000e+00 0.000000e+00
4.000000e-01 1.000000e+00 0.000000e+00
6.000000e-01 1.000000e+00 0.000000e+00
8.000000e-01 1.000000e+00 0.000000e+00
1.000000e+00 1.000000e+00 0.000000e+00
CELLS 100 500 
4 0 1 12 11
4 11 12 23 22
4 22 23 34 33
4 33 34 45 44
4 44 45 56 55
4 55 56 67 66
4 66 67 78 77
4 77 78 89 88
4 88 89 100 99
4 99 100 111 110
4 1 2 13 12
4 12 13 24 23
4 23 24 35 34
4 34 35 46 45
4 45 46 57 56
4 56 57 68 67
4 67 68 79 78
4 78 79 90 89
4 89 90 101 100
4 100 101 112 111
4 2 3 14 13
4 13 14 25 24
4 24 25 36 35
4 35 36 47 46
4 46 47 58 57
4 57 58 69 68
4 68 69 80 79
4 79 80 91 90
4 90 91 102 101
4 101 102 113 112
4 3 4 15 14
4 14 15 26 25
4 25 26 37 36
4 36 37 48 47
4 47 48 59 58
4 58 59 70 69
4 69 70 81 80
4 80 81 92 91
4 91 92 103 102
4 102 103 114 113
4 4 5 16 15
4 15 16 27 26
4 26 27 38 37
4 37 38 49 48
4 48 49 60 59
4 59 60 71 70
4 70 71 82 81
4 81 82 93 92
4 92 93 104 103
4 103 104 115 114
4 5 6 17 16
4 16 17 28 27
4 27 28 39 38
4 38 39 50 49
4 49 50 61 60
4 60 61 72 71
4 71 72 83 82
4 82 83 94 93
4 93 94 105 104
4 104 105 116 115
4 6 7 18 17
4 17 18 29 28
4 28 29 40 39
4 39 40 51 50
4 50 51 62 61
4 61 62 73 72
4 72 73 84 83
4 83 84 95 94
4 94 95 106 105
4 105 106 117 116
4 7 8 19 18
4 18 19 30 29
4 29 30 41 40
4 40 41 52 51
4 51 52 63 62
4 62 63 74 73
4 73 74 85 84
4 84 85 96 95
4 95 96 107 106
4 106 107 118 117
4 8 9 20 19
4 19 20 31 30
4 30 31 42 41
4 41 42 53 52
4 52 53 64 63
4 63 64 75 74
4 74 75 86 85
4 85 86 97 96
4 96 97 108 107
4 107 108 119 118
4 9 10 21 20
4 20 21 32 31
4 31 32 43 42
4 42 43 54 53
4 53 54 65 64
4 64 65 76 75
4 75 76 87 86
4 86 87 98 97
4 97 98 109 108
4 108 109 120 119
CELL_TYPES 100 
9 
9 
9 
9 
9 
9 
9 
9 
9 
9 
9 
9 
9 
9 
9 
9 
9 
9 
9 
9 
9 
9 
9 
9 
9 
9 
9 
9 
9 
9 
9 
9 
9 
9 
9 
9 
9 
9 
9 
9 
9 
9 
9 
9 
9 
9 
9 
9 
9 
9 
9 
9 
9 
9 
9 
9 
9 
9 
9 
9 
9 
9 
9 
9 
9 
9 
9 
9 
9 
9 
9 
9 
9 
9 
9 
9 
9 
9 
9 
9 
9 
9 
9 
9 
9 
9 
9 
9 
9 
9 
9 
9 
9 
9 
9 
9 
9 
9 
9 
9 
POINT_DATA 121 
SCALARS iniData double 1 
LOOKUP_TABLE default 
1.400781e+00 
1.250000e+00 
1.112440e+00 
9.926860e-01 
8.965856e-01 
8.307764e-01 
8.012492e-01 
8.111874e-01 
8.594810e-01 
9.412712e-01 
1.050000e+00 
1.284082e+00 
1.120038e+00 
9.672618e-01 
8.307764e-01 
7.178780e-01 
6.381527e-01 
6.015610e-01 
6.139410e-01 
6.732125e-01 
7.708244e-01 
8.965856e-01 
1.186542e+00 
1.009339e+00 
8.404326e-01 
6.845903e-01 
5.500000e-01 
4.500000e-01 
4.020797e-01 
4.184658e-01 
4.946222e-01 
6.139410e-01 
7.604686e-01 
1.112440e+00 
9.236103e-01 
7.394147e-01 
5.632169e-01 
4.020797e-01 
2.716991e-01 
2.031129e-01 
2.272002e-01 
3.315073e-01 
4.800735e-01 
6.500000e-01 
1.065899e+00 
8.688779e-01 
6.732125e-01 
4.800735e-01 
2.924429e-01 
1.201562e-01 
6.155281e-03 
5.000000e-02 
2.031129e-01 
3.852350e-01 
5.762087e-01 
1.050000e+00 
8.500000e-01 
6.500000e-01 
4.500000e-01 
2.500000e-01 
5.000000e-02 
-1.500000e-01 
-5.000000e-02 
1.500000e-01 
3.500000e-01 
5.500000e-01 
1.065899e+00 
8.688779e-01 
6.732125e-01 
4.800735e-01 
2.924429e-01 
1.201562e-01 
6.155281e-03 
5.000000e-02 
2.031129e-01 
3.852350e-01 
5.762087e-01 
1.112440e+00 
9.236103e-01 
7.394147e-01 
5.632169e-01 
4.020797e-01 
2.716991e-01 
2.031129e-01 
2.272002e-01 
3.315073e-01 
4.800735e-01 
6.500000e-01 
1.186542e+00 
1.009339e+00 
8.404326e-01 
6.845903e-01 
5.500000e-01 
4.500000e-01 
4.020797e-01 
4.184658e-01 
4.946222e-01 
6.139410e-01 
7.604686e-01 
1.284082e+00 
1.120038e+00 
9.672618e-01 
8.307764e-01 
7.178780e-01 
6.381527e-01 
6.015610e-01 
6.139410e-01 
6.732125e-01 
7.708244e-01 
8.965856e-01 
1.400781e+00 
1.250000e+00 
1.112440e+00 
9.926860e-01 
8.965856e-01 
8.307764e-01 
8.012492e-01 
8.111874e-01 
8.594810e-01 
9.412712e-01 
1.050000e+00 
SCALARS trueData double 1 
LOOKUP_TABLE default 
1.400781e+00 
1.250000e+00 
1.112440e+00 
9.926860e-01 
8.965856e-01 
8.307764e-01 
8.012492e-01 
8.111874e-01 
8.594810e-01 
9.412712e-01 
1.050000e+00 
1.284082e+00 
1.120038e+00 
9.672618e-01 
8.307764e-01 
7.178780e-01 
6.381527e-01 
6.015610e-01 
6.139410e-01 
6.732125e-01 
7.708244e-01 
8.965856e-01 
1.186542e+00 
1.009339e+00 
8.404326e-01 
6.845903e-01 
5.500000e-01 
4.500000e-01 
4.020797e-01 
4.184658e-01 
4.946222e-01 
6.139410e-01 
7.604686e-01 
1.112440e+00 
9.236103e-01 
7.394147e-01 
5.632169e-01 
4.020797e-01 
2.716991e-01 
2.031129e-01 
2.272002e-01 
3.315073e-01 
4.800735e-01 
6.500000e-01 
1.065899e+00 
8.688779e-01 
6.732125e-01 
4.800735e-01 
2.924429e-01 
1.201562e-01 
6.155281e-03 
5.000000e-02 
2.031129e-01 
3.852350e-01 
5.762087e-01 
1.050000e+00 
8.500000e-01 
6.500000e-01 
4.500000e-01 
2.500000e-01 
5.000000e-02 
-1.500000e-01 
-5.000000e-02 
1.500000e-01 
3.500000e-01 
5.500000e-01 
1.065899e+00 
8.688779e-01 
6.732125e-01 
4.800735e-01 
2.924429e-01 
1.201562e-01 
6.155281e-03 
5.000000e-02 
2.031129e-01 
3.852350e-01 
5.762087e-01 
1.112440e+00 
9.236103e-01 
7.394147e-01 
5.632169e-01 
4.020797e-01 
2.716991e-01 
2.031129e-01 
2.272002e-01 
3.315073e-01 
4.800735e-01 
6.500000e-01 
1.186542e+00 
1.009339e+00 
8.404326e-01 
6.845903e-01 
5.500000e-01 
4.500000e-01 
4.020797e-01 
4.184658e-01 
4.946222e-01 
6.139410e-01 
7.604686e-01 
1.284082e+00 
1.120038e+00 
9.672618e-01 
8.307764e-01 
7.178780e-01 
6.381527e-01 
6.015610e-01 
6.139410e-01 
6.732125e-01 
7.708244e-01 
8.965856e-01 
1.400781e+00 
1.250000e+00 
1.112440e+00 
9.926860e-01 
8.965856e-01 
8.307764e-01 
8.012492e-01 
8.111874e-01 
8.594810e-01 
9.412712e-01 
1.050000e+00 
SCALARS numericalData double 1 
LOOKUP_TABLE default 
-1.313658e+00 
-6.076771e-01 
-1.047630e-01 
1.802317e-01 
3.123450e-01 
3.340885e-01 
2.770921e-01 
1.612756e-01 
-1.934206e-02 
-2.766125e-01 
-6.407750e-01 
-6.008661e-01 
2.682331e-02 
4.237675e-01 
5.828619e-01 
5.988329e-01 
5.572115e-01 
4.973554e-01 
4.160768e-01 
2.806806e-01 
6.209746e-02 
-2.458722e-01 
-9.042374e-02 
4.405798e-01 
6.698018e-01 
6.679063e-01 
5.961736e-01 
5.165069e-01 
4.656823e-01 
4.393307e-01 
3.938756e-01 
2.725880e-01 
3.076137e-02 
2.304048e-01 
6.664910e-01 
7.292875e-01 
6.192985e-01 
4.890177e-01 
3.787968e-01 
3.225504e-01 
3.326812e-01 
3.666462e-01 
3.494572e-01 
1.786664e-01 
4.087884e-01 
7.519033e-01 
7.093349e-01 
5.469488e-01 
3.764820e-01 
2.380157e-01 
1.820694e-01 
2.114680e-01 
3.022084e-01 
3.540023e-01 
2.628973e-01 
4.485550e-01 
7.644333e-01 
6.884843e-01 
5.054459e-01 
3.235281e-01 
5.000000e-02 
1.068143e-01 
1.421431e-01 
2.595451e-01 
3.500673e-01 
3.037404e-01 
3.999413e-01 
7.603536e-01 
7.061213e-01 
5.300253e-01 
3.504605e-01 
2.101234e-01 
1.471515e-01 
1.779880e-01 
2.807638e-01 
3.601401e-01 
-1.757043e-01 
2.544275e-01 
6.688217e-01 
7.231231e-01 
5.867566e-01 
4.332312e-01 
3.163711e-01 
2.641398e-01 
2.793656e-01 
3.349344e-01 
3.567257e-01 
-1.645758e-01 
1.932415e-02 
5.442549e-01 
6.719143e-01 
6.304762e-01 
5.258102e-01 
4.362487e-01 
3.870409e-01 
3.708533e-01 
3.603766e-01 
2.148546e-01 
-4.966274e-02 
0.000000e+00 
2.028382e-02 
2.918934e-01 
5.400960e-01 
5.055882e-01 
4.632374e-01 
4.058095e-01 
3.457791e-01 
2.693117e-01 
1.011494e-01 
3.431298e-02 
0.000000e+00 
0.000000e+00 
0.000000e+00 
0.000000e+00 
0.000000e+00 
2.263591e-01 
1.878978e-01 
1.028317e-01 
-5.117432e-02 
-9.531275e-03 
-1.014308e-02 
SCALARS errorData double 1 
LOOKUP_TABLE default 
2.714439e+00 
1.857677e+00 
1.217203e+00 
8.124544e-01 
5.842406e-01 
4.966879e-01 
5.241572e-01 
6.499118e-01 
8.788231e-01 
1.217884e+00 
1.690775e+00 
1.884948e+00 
1.093215e+00 
5.434943e-01 
2.479145e-01 
1.190451e-01 
8.094123e-02 
1.042056e-01 
1.978642e-01 
3.925319e-01 
7.087269e-01 
1.142458e+00 
1.276966e+00 
5.687589e-01 
1.706308e-01 
1.668398e-02 
4.617357e-02 
6.650693e-02 
6.360259e-02 
2.086487e-02 
1.007466e-01 
3.413530e-01 
7.297073e-01 
8.820357e-01 
2.571192e-01 
1.012725e-02 
5.608163e-02 
8.693801e-02 
1.070977e-01 
1.194375e-01 
1.054810e-01 
3.513894e-02 
1.306164e-01 
4.713336e-01 
6.571105e-01 
1.169747e-01 
3.612242e-02 
6.687532e-02 
8.403907e-02 
1.178595e-01 
1.759141e-01 
1.614680e-01 
9.909552e-02 
3.123274e-02 
3.133114e-01 
6.014450e-01 
8.556670e-02 
3.848434e-02 
5.544595e-02 
7.352812e-02 
6.938894e-18 
2.568143e-01 
1.921431e-01 
1.095451e-01 
6.728803e-05 
2.462596e-01 
6.659576e-01 
1.085243e-01 
3.290886e-02 
4.995180e-02 
5.801761e-02 
8.996715e-02 
1.409962e-01 
1.279880e-01 
7.765088e-02 
2.509488e-02 
7.519130e-01 
8.580130e-01 
2.547885e-01 
1.629164e-02 
2.353976e-02 
3.115152e-02 
4.467203e-02 
6.102689e-02 
5.216542e-02 
3.427074e-03 
1.233478e-01 
8.145758e-01 
1.167218e+00 
4.650837e-01 
1.685183e-01 
5.411405e-02 
2.418980e-02 
1.375132e-02 
1.503884e-02 
4.761257e-02 
1.342456e-01 
3.990864e-01 
8.101314e-01 
1.284082e+00 
1.099754e+00 
6.753683e-01 
2.906804e-01 
2.122898e-01 
1.749153e-01 
1.957515e-01 
2.681619e-01 
4.039008e-01 
6.696750e-01 
8.622726e-01 
1.400781e+00 
1.250000e+00 
1.112440e+00 
9.926860e-01 
8.965856e-01 
6.044173e-01 
6.133514e-01 
7.083557e-01 
9.106553e-01 
9.508025e-01 
1.060143e+00 
SCALARS numericalData double 1 
LOOKUP_TABLE default 
-4.582790e-01 
-2.212642e-01 
-4.790479e-02 
6.400893e-02 
1.206749e-01 
1.312546e-01 
1.074525e-01 
5.145499e-02 
-4.010253e-02 
-1.769230e-01 
-3.688934e-01 
-2.304059e-01 
-5.390650e-04 
1.614317e-01 
2.580766e-01 
2.919502e-01 
2.828776e-01 
2.532081e-01 
2.028781e-01 
1.275473e-01 
1.272383e-02 
-1.589581e-01 
-5.119470e-02 
1.718884e-01 
3.239214e-01 
4.011457e-01 
3.962582e-01 
3.622384e-01 
3.219010e-01 
2.793505e-01 
2.251388e-01 
1.383888e-01 
-6.399897e-03 
7.749147e-02 
2.958290e-01 
4.409441e-01 
4.845335e-01 
4.235510e-01 
3.572970e-01 
3.144972e-01 
2.870355e-01 
2.579097e-01 
2.025083e-01 
8.908847e-02 
1.551752e-01 
3.718421e-01 
5.143436e-01 
5.089655e-01 
3.967534e-01 
2.771181e-01 
2.408029e-01 
2.503405e-01 
2.510978e-01 
2.220729e-01 
1.349995e-01 
1.804783e-01 
3.976738e-01 
5.435284e-01 
5.086686e-01 
3.662562e-01 
5.000000e-02 
1.940439e-01 
2.243792e-01 
2.421942e-01 
2.232988e-01 
1.465324e-01 
1.539529e-01 
3.715005e-01 
5.342601e-01 
5.142922e-01 
3.980280e-01 
2.748507e-01 
2.306440e-01 
2.341524e-01 
2.391608e-01 
1.982822e-01 
-7.209343e-02 
9.564763e-02 
2.848678e-01 
4.811169e-01 
5.212044e-01 
4.447081e-01 
3.452882e-01 
2.834458e-01 
2.505648e-01 
2.165935e-01 
1.141719e-01 
-8.491290e-02 
3.091350e-02 
1.574718e-01 
3.274927e-01 
4.475866e-01 
4.338187e-01 
3.683236e-01 
2.933381e-01 
2.233725e-01 
1.375776e-01 
3.046773e-02 
-1.212644e-02 
4.297837e-03 
3.403167e-02 
1.331491e-01 
2.394831e-01 
2.914339e-01 
2.590392e-01 
1.951874e-01 
1.219574e-01 
4.289372e-02 
-1.595016e-02 
-9.139676e-03 
1.464147e-307 
0.000000e+00 
0.000000e+00 
0.000000e+00 
0.000000e+00 
1.023720e-01 
6.563415e-02 
2.251658e-02 
-7.427998e-03 
-4.456370e-03 
1.464147e-307 
SCALARS errorData double 1 
LOOKUP_TABLE default 
1.859060e+00 
1.471264e+00 
1.160345e+00 
9.286771e-01 
7.759107e-01 
6.995218e-01 
6.937968e-01 
7.597324e-01 
8.995835e-01 
1.118194e+00 
1.418893e+00 
1.514488e+00 
1.120577e+00 
8.058300e-01 
5.726998e-01 
4.259278e-01 
3.552751e-01 
3.483529e-01 
4.110629e-01 
5.456651e-01 
7.581006e-01 
1.055544e+00 
1.237737e+00 
8.374502e-01 
5.165112e-01 
2.834446e-01 
1.537418e-01 
8.776164e-02 
8.017872e-02 
1.391153e-01 
2.694834e-01 
4.755523e-01 
7.668685e-01 
1.034949e+00 
6.277813e-01 
2.984707e-01 
7.868340e-02 
2.147130e-02 
8.559797e-02 
1.113843e-01 
5.983530e-02 
7.359763e-02 
2.775652e-01 
5.609115e-01 
9.107237e-01 
4.970358e-01 
1.588688e-01 
2.889193e-02 
1.043105e-01 
1.569619e-01 
2.346476e-01 
2.003405e-01 
4.798489e-02 
1.631621e-01 
4.412093e-01 
8.695217e-01 
4.523262e-01 
1.064716e-01 
5.866856e-02 
1.162562e-01 
6.938894e-18 
3.440439e-01 
2.743792e-01 
9.219419e-02 
1.267012e-01 
4.034676e-01 
9.119460e-01 
4.973775e-01 
1.389524e-01 
3.421866e-02 
1.055851e-01 
1.546945e-01 
2.244888e-01 
1.841524e-01 
3.604796e-02 
1.869528e-01 
6.483022e-01 
1.016793e+00 
6.387425e-01 
2.582979e-01 
4.201249e-02 
4.262839e-02 
7.358912e-02 
8.033296e-02 
2.336458e-02 
1.149138e-01 
3.659017e-01 
7.349129e-01 
1.155629e+00 
8.518669e-01 
5.129399e-01 
2.370037e-01 
1.161813e-01 
8.167644e-02 
1.087416e-01 
1.950933e-01 
3.570446e-01 
5.834733e-01 
7.725951e-01 
1.279784e+00 
1.086006e+00 
8.341126e-01 
5.912933e-01 
4.264441e-01 
3.791135e-01 
4.063736e-01 
4.919837e-01 
6.303187e-01 
7.867746e-01 
9.057253e-01 
1.400781e+00 
1.250000e+00 
1.112440e+00 
9.926860e-01 
8.965856e-01 
7.284044e-01 
7.356151e-01 
7.886708e-01 
8.669090e-01 
9.457276e-01 
1.050000e+00 
SCALARS numericalData double 1 
LOOKUP_TABLE default 
-2.469110e-01 
-9.332640e-02 
1.870390e-02 
9.258627e-02 
1.303735e-01 
1.308629e-01 
1.081654e-01 
6.550383e-02 
4.633192e-03 
-7.246583e-02 
-1.646214e-01 
-9.584532e-02 
5.310761e-02 
1.612111e-01 
2.297043e-01 
2.539481e-01 
2.399374e-01 
2.095498e-01 
1.640229e-01 
1.030107e-01 
2.527919e-02 
-6.915406e-02 
2.200617e-02 
1.690945e-01 
2.766134e-01 
3.408479e-01 
3.447557e-01 
3.140379e-01 
2.742779e-01 
2.262127e-01 
1.675989e-01 
9.411648e-02 
1.717561e-03 
1.067141e-01 
2.550021e-01 
3.667198e-01 
4.256558e-01 
3.992297e-01 
3.479133e-01 
3.006293e-01 
2.552920e-01 
2.038563e-01 
1.378203e-01 
4.964875e-02 
1.558973e-01 
3.077471e-01 
4.289112e-01 
4.772721e-01 
4.100580e-01 
3.197978e-01 
2.752093e-01 
2.472768e-01 
2.097746e-01 
1.526900e-01 
7.181654e-02 
1.698807e-01 
3.227121e-01 
4.483216e-01 
4.902539e-01 
4.008823e-01 
5.000000e-02 
2.519021e-01 
2.410340e-01 
2.121697e-01 
1.551971e-01 
7.489482e-02 
1.515279e-01 
2.933654e-01 
4.267272e-01 
4.795037e-01 
4.174922e-01 
3.264590e-01 
2.750572e-01 
2.479440e-01 
2.089062e-01 
1.337345e-01 
-8.229520e-03 
1.093469e-01 
2.276330e-01 
3.602808e-01 
4.518845e-01 
4.323080e-01 
3.642293e-01 
2.942821e-01 
2.435264e-01 
1.784265e-01 
9.385301e-02 
-8.360477e-03 
5.721781e-02 
1.376832e-01 
2.395411e-01 
3.327120e-01 
3.672852e-01 
3.300232e-01 
2.656895e-01 
1.986965e-01 
1.280951e-01 
5.612837e-02 
2.723647e-04 
1.232567e-02 
4.581938e-02 
1.034580e-01 
1.686205e-01 
2.218731e-01 
2.285841e-01 
1.840988e-01 
1.296729e-01 
7.303973e-02 
2.132595e-02 
-5.862392e-04 
3.149648e-307 
0.000000e+00 
0.000000e+00 
0.000000e+00 
0.000000e+00 
1.227116e-01 
9.695417e-02 
6.225873e-02 
2.575280e-02 
-6.567124e-04 
4.797871e-307 
SCALARS errorData double 1 
LOOKUP_TABLE default 
1.647692e+00 
1.343326e+00 
1.093737e+00 
9.000998e-01 
7.662121e-01 
6.999135e-01 
6.930839e-01 
7.456836e-01 
8.548478e-01 
1.013737e+00 
1.214621e+00 
1.379928e+00 
1.066930e+00 
8.060507e-01 
6.010721e-01 
4.639298e-01 
3.982153e-01 
3.920112e-01 
4.499182e-01 
5.702018e-01 
7.455452e-01 
9.657397e-01 
1.164536e+00 
8.402442e-01 
5.638192e-01 
3.437424e-01 
2.052443e-01 
1.359621e-01 
1.278018e-01 
1.922532e-01 
3.270233e-01 
5.198245e-01 
7.587511e-01 
1.005726e+00 
6.686082e-01 
3.726949e-01 
1.375611e-01 
2.850025e-03 
7.621428e-02 
9.751639e-02 
2.809182e-02 
1.276510e-01 
3.422533e-01 
6.003512e-01 
9.100016e-01 
5.611308e-01 
2.443012e-01 
2.801402e-03 
1.176151e-01 
1.996416e-01 
2.690541e-01 
1.972768e-01 
6.661671e-03 
2.325450e-01 
5.043922e-01 
8.801193e-01 
5.272879e-01 
2.016784e-01 
4.025394e-02 
1.508823e-01 
6.938894e-18 
4.019021e-01 
2.910340e-01 
6.216974e-02 
1.948029e-01 
4.751052e-01 
9.143710e-01 
5.755125e-01 
2.464852e-01 
5.697770e-04 
1.250493e-01 
2.063028e-01 
2.689019e-01 
1.979440e-01 
5.793338e-03 
2.515005e-01 
5.844383e-01 
1.003094e+00 
6.959773e-01 
3.791339e-01 
1.113324e-01 
3.022828e-02 
9.253027e-02 
9.116923e-02 
1.632618e-02 
1.530808e-01 
3.862205e-01 
6.583605e-01 
1.129325e+00 
8.716555e-01 
6.008915e-01 
3.518783e-01 
1.827148e-01 
1.199768e-01 
1.363902e-01 
2.197693e-01 
3.665271e-01 
5.578127e-01 
7.601963e-01 
1.271757e+00 
1.074218e+00 
8.638037e-01 
6.621559e-01 
4.960048e-01 
4.095686e-01 
4.174622e-01 
4.842681e-01 
6.001727e-01 
7.494984e-01 
8.971718e-01 
1.400781e+00 
1.250000e+00 
1.112440e+00 
9.926860e-01 
8.965856e-01 
7.080648e-01 
7.042950e-01 
7.489287e-01 
8.337282e-01 
9.419279e-01 
1.050000e+00 
SCALARS numericalData double 1 
LOOKUP_TABLE default 
-2.307559e-01 
-8.260717e-02 
2.556821e-02 
9.682201e-02 
1.333767e-01 
1.330101e-01 
1.104191e-01 
6.875262e-02 
9.769716e-03 
-6.450791e-02 
-1.524291e-01 
-8.510180e-02 
5.851480e-02 
1.630153e-01 
2.294761e-01 
2.533164e-01 
2.386112e-01 
2.083686e-01 
1.636118e-01 
1.041549e-01 
2.894113e-02 
-6.157000e-02 
2.811002e-02 
1.699989e-01 
2.742019e-01 
3.372628e-01 
3.419840e-01 
3.112582e-01 
2.718261e-01 
2.241106e-01 
1.661781e-01 
9.431249e-02 
5.102214e-03 
1.090530e-01 
2.523071e-01 
3.611197e-01 
4.205752e-01 
3.972425e-01 
3.472975e-01 
2.996240e-01 
2.534020e-01 
2.014312e-01 
1.357902e-01 
4.972555e-02 
1.553998e-01 
3.023476e-01 
4.211471e-01 
4.730528e-01 
4.113525e-01 
3.250893e-01 
2.785389e-01 
2.472489e-01 
2.073009e-01 
1.491172e-01 
6.914469e-02 
1.682013e-01 
3.160176e-01 
4.398351e-01 
4.868013e-01 
4.054507e-01 
5.000000e-02 
2.584805e-01 
2.422050e-01 
2.095117e-01 
1.501800e-01 
6.991420e-02 
1.501914e-01 
2.865525e-01 
4.170766e-01 
4.749974e-01 
4.195814e-01 
3.325491e-01 
2.788754e-01 
2.479329e-01 
2.051076e-01 
1.274050e-01 
-3.178191e-03 
1.093503e-01 
2.225775e-01 
3.501269e-01 
4.432097e-01 
4.295334e-01 
3.644166e-01 
2.940729e-01 
2.410157e-01 
1.731188e-01 
8.971983e-02 
-3.268978e-03 
5.875013e-02 
1.356461e-01 
2.321894e-01 
3.219337e-01 
3.590805e-01 
3.242583e-01 
2.612999e-01 
1.947651e-01 
1.247170e-01 
5.469390e-02 
-2.299948e-05 
1.343799e-02 
4.666359e-02 
1.011521e-01 
1.623401e-01 
2.137663e-01 
2.245073e-01 
1.812047e-01 
1.279420e-01 
7.260873e-02 
2.279226e-02 
-5.588832e-04 
3.149648e-307 
0.000000e+00 
0.000000e+00 
0.000000e+00 
0.000000e+00 
1.222062e-01 
9.718441e-02 
6.322747e-02 
2.746866e-02 
1.592752e-03 
4.811811e-307 
SCALARS errorData double 1 
LOOKUP_TABLE default 
1.631537e+00 
1.332607e+00 
1.086872e+00 
8.958640e-01 
7.632089e-01 
6.977663e-01 
6.908301e-01 
7.424348e-01 
8.497113e-01 
1.005779e+00 
1.202429e+00 
1.369184e+00 
1.061523e+00 
8.042465e-01 
6.013003e-01 
4.645616e-01 
3.995416e-01 
3.931924e-01 
4.503292e-01 
5.690576e-01 
7.418833e-01 
9.581556e-01 
1.158432e+00 
8.393398e-01 
5.662307e-01 
3.473275e-01 
2.080160e-01 
1.387418e-01 
1.302536e-01 
1.943552e-01 
3.284441e-01 
5.196285e-01 
7.553664e-01 
1.003388e+00 
6.713031e-01 
3.782950e-01 
1.426417e-01 
4.837202e-03 
7.559848e-02 
9.651113e-02 
2.620178e-02 
1.300760e-01 
3.442834e-01 
6.002744e-01 
9.104990e-01 
5.665303e-01 
2.520654e-01 
7.020726e-03 
1.189096e-01 
2.049331e-01 
2.723836e-01 
1.972489e-01 
4.188016e-03 
2.361178e-01 
5.070640e-01 
8.817987e-01 
5.339824e-01 
2.101649e-01 
3.680126e-02 
1.554507e-01 
6.938894e-18 
4.084805e-01 
2.922050e-01 
5.951167e-02 
1.998200e-01 
4.800858e-01 
9.157075e-01 
5.823254e-01 
2.561358e-01 
5.076155e-03 
1.271385e-01 
2.123929e-01 
2.727201e-01 
1.979329e-01 
1.994666e-03 
2.578300e-01 
5.793869e-01 
1.003090e+00 
7.010328e-01 
3.892879e-01 
1.200072e-01 
2.745368e-02 
9.271758e-02 
9.096004e-02 
1.381555e-02 
1.583885e-01 
3.903537e-01 
6.532690e-01 
1.127792e+00 
8.736926e-01 
6.082432e-01 
3.626566e-01 
1.909195e-01 
1.257417e-01 
1.407799e-01 
2.237008e-01 
3.699052e-01 
5.592471e-01 
7.604916e-01 
1.270644e+00 
1.073374e+00 
8.661096e-01 
6.684363e-01 
5.041117e-01 
4.136455e-01 
4.203563e-01 
4.859991e-01 
6.006037e-01 
7.480321e-01 
8.971445e-01 
1.400781e+00 
1.250000e+00 
1.112440e+00 
9.926860e-01 
8.965856e-01 
7.085702e-01 
7.040648e-01 
7.479600e-01 
8.320123e-01 
9.396785e-01 
1.050000e+00 
