# vtk DataFile Version 2.0 
Quadtree Mesh 
ASCII 
DATASET UNSTRUCTURED_GRID 
POINTS 81 double 
-1.000000e+00 -1.000000e+00 0.000000e+00
-7.500000e-01 -1.000000e+00 0.000000e+00
-5.000000e-01 -1.000000e+00 0.000000e+00
-2.500000e-01 -1.000000e+00 0.000000e+00
0.000000e+00 -1.000000e+00 0.000000e+00
2.500000e-01 -1.000000e+00 0.000000e+00
5.000000e-01 -1.000000e+00 0.000000e+00
7.500000e-01 -1.000000e+00 0.000000e+00
1.000000e+00 -1.000000e+00 0.000000e+00
-1.000000e+00 -7.500000e-01 0.000000e+00
-7.500000e-01 -7.500000e-01 0.000000e+00
-5.000000e-01 -7.500000e-01 0.000000e+00
-2.500000e-01 -7.500000e-01 0.000000e+00
0.000000e+00 -7.500000e-01 0.000000e+00
2.500000e-01 -7.500000e-01 0.000000e+00
5.000000e-01 -7.500000e-01 0.000000e+00
7.500000e-01 -7.500000e-01 0.000000e+00
1.000000e+00 -7.500000e-01 0.000000e+00
-1.000000e+00 -5.000000e-01 0.000000e+00
-7.500000e-01 -5.000000e-01 0.000000e+00
-5.000000e-01 -5.000000e-01 0.000000e+00
-2.500000e-01 -5.000000e-01 0.000000e+00
0.000000e+00 -5.000000e-01 0.000000e+00
2.500000e-01 -5.000000e-01 0.000000e+00
5.000000e-01 -5.000000e-01 0.000000e+00
7.500000e-01 -5.000000e-01 0.000000e+00
1.000000e+00 -5.000000e-01 0.000000e+00
-1.000000e+00 -2.500000e-01 0.000000e+00
-7.500000e-01 -2.500000e-01 0.000000e+00
-5.000000e-01 -2.500000e-01 0.000000e+00
-2.500000e-01 -2.500000e-01 0.000000e+00
0.000000e+00 -2.500000e-01 0.000000e+00
2.500000e-01 -2.500000e-01 0.000000e+00
5.000000e-01 -2.500000e-01 0.000000e+00
7.500000e-01 -2.500000e-01 0.000000e+00
1.000000e+00 -2.500000e-01 0.000000e+00
-1.000000e+00 0.000000e+00 0.000000e+00
-7.500000e-01 0.000000e+00 0.000000e+00
-5.000000e-01 0.000000e+00 0.000000e+00
-2.500000e-01 0.000000e+00 0.000000e+00
0.000000e+00 0.000000e+00 0.000000e+00
2.500000e-01 0.000000e+00 0.000000e+00
5.000000e-01 0.000000e+00 0.000000e+00
7.500000e-01 0.000000e+00 0.000000e+00
1.000000e+00 0.000000e+00 0.000000e+00
-1.000000e+00 2.500000e-01 0.000000e+00
-7.500000e-01 2.500000e-01 0.000000e+00
-5.000000e-01 2.500000e-01 0.000000e+00
-2.500000e-01 2.500000e-01 0.000000e+00
0.000000e+00 2.500000e-01 0.000000e+00
2.500000e-01 2.500000e-01 0.000000e+00
5.000000e-01 2.500000e-01 0.000000e+00
7.500000e-01 2.500000e-01 0.000000e+00
1.000000e+00 2.500000e-01 0.000000e+00
-1.000000e+00 5.000000e-01 0.000000e+00
-7.500000e-01 5.000000e-01 0.000000e+00
-5.000000e-01 5.000000e-01 0.000000e+00
-2.500000e-01 5.000000e-01 0.000000e+00
0.000000e+00 5.000000e-01 0.000000e+00
2.500000e-01 5.000000e-01 0.000000e+00
5.000000e-01 5.000000e-01 0.000000e+00
7.500000e-01 5.000000e-01 0.000000e+00
1.000000e+00 5.000000e-01 0.000000e+00
-1.000000e+00 7.500000e-01 0.000000e+00
-7.500000e-01 7.500000e-01 0.000000e+00
-5.000000e-01 7.500000e-01 0.000000e+00
-2.500000e-01 7.500000e-01 0.000000e+00
0.000000e+00 7.500000e-01 0.000000e+00
2.500000e-01 7.500000e-01 0.000000e+00
5.000000e-01 7.500000e-01 0.000000e+00
7.500000e-01 7.500000e-01 0.000000e+00
1.000000e+00 7.500000e-01 0.000000e+00
-1.000000e+00 1.000000e+00 0.000000e+00
-7.500000e-01 1.000000e+00 0.000000e+00
-5.000000e-01 1.000000e+00 0.000000e+00
-2.500000e-01 1.000000e+00 0.000000e+00
0.000000e+00 1.000000e+00 0.000000e+00
2.500000e-01 1.000000e+00 0.000000e+00
5.000000e-01 1.000000e+00 0.000000e+00
7.500000e-01 1.000000e+00 0.000000e+00
1.000000e+00 1.000000e+00 0.000000e+00
CELLS 64 320 
4 0 1 10 9
4 9 10 19 18
4 18 19 28 27
4 27 28 37 36
4 36 37 46 45
4 45 46 55 54
4 54 55 64 63
4 63 64 73 72
4 1 2 11 10
4 10 11 20 19
4 19 20 29 28
4 28 29 38 37
4 37 38 47 46
4 46 47 56 55
4 55 56 65 64
4 64 65 74 73
4 2 3 12 11
4 11 12 21 20
4 20 21 30 29
4 29 30 39 38
4 38 39 48 47
4 47 48 57 56
4 56 57 66 65
4 65 66 75 74
4 3 4 13 12
4 12 13 22 21
4 21 22 31 30
4 30 31 40 39
4 39 40 49 48
4 48 49 58 57
4 57 58 67 66
4 66 67 76 75
4 4 5 14 13
4 13 14 23 22
4 22 23 32 31
4 31 32 41 40
4 40 41 50 49
4 49 50 59 58
4 58 59 68 67
4 67 68 77 76
4 5 6 15 14
4 14 15 24 23
4 23 24 33 32
4 32 33 42 41
4 41 42 51 50
4 50 51 60 59
4 59 60 69 68
4 68 69 78 77
4 6 7 16 15
4 15 16 25 24
4 24 25 34 33
4 33 34 43 42
4 42 43 52 51
4 51 52 61 60
4 60 61 70 69
4 69 70 79 78
4 7 8 17 16
4 16 17 26 25
4 25 26 35 34
4 34 35 44 43
4 43 44 53 52
4 52 53 62 61
4 61 62 71 70
4 70 71 80 79
CELL_TYPES 64 
9 
9 
9 
9 
9 
9 
9 
9 
9 
9 
9 
9 
9 
9 
9 
9 
9 
9 
9 
9 
9 
9 
9 
9 
9 
9 
9 
9 
9 
9 
9 
9 
9 
9 
9 
9 
9 
9 
9 
9 
9 
9 
9 
9 
9 
9 
9 
9 
9 
9 
9 
9 
9 
9 
9 
9 
9 
9 
9 
9 
9 
9 
9 
9 
POINT_DATA 81 
SCALARS iniData double 1 
LOOKUP_TABLE default 
1.400781e+00 
1.214214e+00 
1.050000e+00 
9.180340e-01 
8.307764e-01 
8.000000e-01 
8.307764e-01 
9.180340e-01 
1.050000e+00 
1.257738e+00 
1.050000e+00 
8.606602e-01 
7.013878e-01 
5.905694e-01 
5.500000e-01 
5.905694e-01 
7.013878e-01 
8.606602e-01 
1.146291e+00 
9.180340e-01 
7.013878e-01 
5.071068e-01 
3.590170e-01 
3.000000e-01 
3.590170e-01 
5.071068e-01 
7.013878e-01 
1.074755e+00 
8.307764e-01 
5.905694e-01 
3.590170e-01 
1.535534e-01 
5.000000e-02 
1.535534e-01 
3.590170e-01 
5.905694e-01 
1.050000e+00 
8.000000e-01 
5.500000e-01 
3.000000e-01 
5.000000e-02 
-2.000000e-01 
5.000000e-02 
3.000000e-01 
5.500000e-01 
1.074755e+00 
8.307764e-01 
5.905694e-01 
3.590170e-01 
1.535534e-01 
5.000000e-02 
1.535534e-01 
3.590170e-01 
5.905694e-01 
1.146291e+00 
9.180340e-01 
7.013878e-01 
5.071068e-01 
3.590170e-01 
3.000000e-01 
3.590170e-01 
5.071068e-01 
7.013878e-01 
1.257738e+00 
1.050000e+00 
8.606602e-01 
7.013878e-01 
5.905694e-01 
5.500000e-01 
5.905694e-01 
7.013878e-01 
8.606602e-01 
1.400781e+00 
1.214214e+00 
1.050000e+00 
9.180340e-01 
8.307764e-01 
8.000000e-01 
8.307764e-01 
9.180340e-01 
1.050000e+00 
SCALARS numer_sol=0 double 1 
LOOKUP_TABLE default 
1.548478e+00 
1.360199e+00 
1.195483e+00 
1.067641e+00 
9.860995e-01 
9.590073e-01 
9.926137e-01 
1.084087e+00 
1.230963e+00 
1.390452e+00 
1.183357e+00 
9.965072e-01 
8.416609e-01 
7.376920e-01 
7.052251e-01 
7.468510e-01 
8.562695e-01 
1.019434e+00 
1.269128e+00 
1.037597e+00 
8.205433e-01 
6.323707e-01 
5.042399e-01 
4.633797e-01 
5.204045e-01 
6.574975e-01 
8.468539e-01 
1.183941e+00 
9.341452e-01 
6.890328e-01 
4.758158e-01 
3.158440e-01 
2.697273e-01 
3.353260e-01 
5.069255e-01 
7.232754e-01 
1.146892e+00 
8.867407e-01 
6.281117e-01 
4.033843e-01 
5.000000e-02 
1.650510e-01 
2.375819e-01 
4.300768e-01 
6.660992e-01 
1.160183e+00 
9.071023e-01 
6.565857e-01 
4.366442e-01 
2.687508e-01 
2.110430e-01 
2.771906e-01 
4.601039e-01 
6.880255e-01 
1.222875e+00 
9.864529e-01 
7.588940e-01 
5.546444e-01 
4.095376e-01 
3.675475e-01 
4.329094e-01 
5.810800e-01 
7.870412e-01 
1.325491e+00 
1.110875e+00 
9.134641e-01 
7.461252e-01 
6.319586e-01 
5.969450e-01 
6.451306e-01 
7.631444e-01 
9.430960e-01 
1.470669e+00 
1.274560e+00 
1.102325e+00 
9.623001e-01 
8.731695e-01 
8.432638e-01 
8.816844e-01 
9.835915e-01 
1.151458e+00 
SCALARS errors=0 double 1 
LOOKUP_TABLE default 
-1.476967e-01 
-1.459854e-01 
-1.454830e-01 
-1.496070e-01 
-1.553231e-01 
-1.590073e-01 
-1.618373e-01 
-1.660535e-01 
-1.809626e-01 
-1.327141e-01 
-1.333570e-01 
-1.358471e-01 
-1.402731e-01 
-1.471226e-01 
-1.552251e-01 
-1.562816e-01 
-1.548817e-01 
-1.587735e-01 
-1.228372e-01 
-1.195632e-01 
-1.191555e-01 
-1.252639e-01 
-1.452229e-01 
-1.633797e-01 
-1.613875e-01 
-1.503907e-01 
-1.454660e-01 
-1.091863e-01 
-1.033688e-01 
-9.846336e-02 
-1.167988e-01 
-1.622906e-01 
-2.197273e-01 
-1.817727e-01 
-1.479085e-01 
-1.327060e-01 
-9.689155e-02 
-8.674065e-02 
-7.811165e-02 
-1.033843e-01 
0.000000e+00 
-3.650510e-01 
-1.875819e-01 
-1.300768e-01 
-1.160992e-01 
-8.542813e-02 
-7.632593e-02 
-6.601633e-02 
-7.762716e-02 
-1.151974e-01 
-1.610430e-01 
-1.236372e-01 
-1.010869e-01 
-9.745604e-02 
-7.658380e-02 
-6.841892e-02 
-5.750619e-02 
-4.753763e-02 
-5.052063e-02 
-6.754754e-02 
-7.389244e-02 
-7.397321e-02 
-8.565342e-02 
-6.775269e-02 
-6.087459e-02 
-5.280396e-02 
-4.473742e-02 
-4.138914e-02 
-4.694496e-02 
-5.456122e-02 
-6.175655e-02 
-8.243581e-02 
-6.988806e-02 
-6.034608e-02 
-5.232455e-02 
-4.426610e-02 
-4.239306e-02 
-4.326379e-02 
-5.090803e-02 
-6.555750e-02 
-1.014580e-01 
SCALARS numer_sol=1 double 1 
LOOKUP_TABLE default 
1.411533e+00 
1.229434e+00 
1.073694e+00 
9.496687e-01 
8.660444e-01 
8.329638e-01 
8.582388e-01 
9.456276e-01 
1.099249e+00 
1.269172e+00 
1.073924e+00 
9.018051e-01 
7.601934e-01 
6.607807e-01 
6.180505e-01 
6.407157e-01 
7.312453e-01 
8.894928e-01 
1.163027e+00 
9.540208e-01 
7.630161e-01 
5.995983e-01 
4.829323e-01 
4.321396e-01 
4.584078e-01 
5.591459e-01 
7.267886e-01 
1.095372e+00 
8.752980e-01 
6.672299e-01 
4.822191e-01 
3.404728e-01 
2.969416e-01 
3.255019e-01 
4.398708e-01 
6.184128e-01 
1.069980e+00 
8.449138e-01 
6.285548e-01 
4.303195e-01 
5.000000e-02 
2.350038e-01 
2.681812e-01 
3.895446e-01 
5.756077e-01 
1.089034e+00 
8.677227e-01 
6.563685e-01 
4.742436e-01 
3.352798e-01 
2.853423e-01 
3.050919e-01 
4.233404e-01 
6.076257e-01 
1.151335e+00 
9.398535e-01 
7.436036e-01 
5.734374e-01 
4.517774e-01 
4.019477e-01 
4.292080e-01 
5.354269e-01 
7.119659e-01 
1.255574e+00 
1.055996e+00 
8.778214e-01 
7.300505e-01 
6.268590e-01 
5.842458e-01 
6.106389e-01 
7.084253e-01 
8.772530e-01 
1.401294e+00 
1.213177e+00 
1.051359e+00 
9.220813e-01 
8.356299e-01 
8.031605e-01 
8.324009e-01 
9.283295e-01 
1.094504e+00 
SCALARS errors=1 double 1 
LOOKUP_TABLE default 
-1.075233e-02 
-1.522076e-02 
-2.369380e-02 
-3.163471e-02 
-3.526799e-02 
-3.296382e-02 
-2.746243e-02 
-2.759364e-02 
-4.924872e-02 
-1.143442e-02 
-2.392434e-02 
-4.114496e-02 
-5.880554e-02 
-7.021132e-02 
-6.805047e-02 
-5.014632e-02 
-2.985748e-02 
-2.883266e-02 
-1.673543e-02 
-3.598683e-02 
-6.162830e-02 
-9.249151e-02 
-1.239153e-01 
-1.321396e-01 
-9.939078e-02 
-5.203915e-02 
-2.540077e-02 
-2.061668e-02 
-4.452156e-02 
-7.666048e-02 
-1.232021e-01 
-1.869194e-01 
-2.469416e-01 
-1.719485e-01 
-8.085381e-02 
-2.784341e-02 
-1.997970e-02 
-4.491384e-02 
-7.855475e-02 
-1.303195e-01 
0.000000e+00 
-4.350038e-01 
-2.181812e-01 
-8.954458e-02 
-2.560771e-02 
-1.427944e-02 
-3.694634e-02 
-6.579907e-02 
-1.152266e-01 
-1.817264e-01 
-2.353423e-01 
-1.515385e-01 
-6.432338e-02 
-1.705624e-02 
-5.043621e-03 
-2.181956e-02 
-4.221576e-02 
-6.633067e-02 
-9.276041e-02 
-1.019477e-01 
-7.019096e-02 
-2.832012e-02 
-1.057805e-02 
2.164233e-03 
-5.995824e-03 
-1.716119e-02 
-2.866266e-02 
-3.628963e-02 
-3.424584e-02 
-2.006947e-02 
-7.037480e-03 
-1.659285e-02 
-5.129729e-04 
1.036836e-03 
-1.359410e-03 
-4.047333e-03 
-4.853522e-03 
-3.160549e-03 
-1.624463e-03 
-1.029551e-02 
-4.450394e-02 
SCALARS numer_sol=2 double 1 
LOOKUP_TABLE default 
1.360306e+00 
1.213500e+00 
1.085031e+00 
9.787169e-01 
9.033305e-01 
8.668519e-01 
8.711471e-01 
9.171868e-01 
1.009543e+00 
1.255915e+00 
1.096153e+00 
9.489963e-01 
8.218584e-01 
7.312804e-01 
6.940663e-01 
7.084962e-01 
7.668639e-01 
8.680030e-01 
1.173301e+00 
9.956730e-01 
8.222984e-01 
6.681958e-01 
5.576186e-01 
5.211174e-01 
5.550961e-01 
6.362193e-01 
7.540507e-01 
1.115526e+00 
9.222125e-01 
7.251751e-01 
5.483578e-01 
4.214319e-01 
3.869909e-01 
4.328858e-01 
5.360146e-01 
6.735096e-01 
1.092722e+00 
8.893788e-01 
6.817182e-01 
4.995156e-01 
5.000000e-02 
3.329791e-01 
3.701763e-01 
4.877155e-01 
6.387824e-01 
1.107501e+00 
9.075806e-01 
7.077262e-01 
5.361251e-01 
4.141796e-01 
3.697602e-01 
3.967724e-01 
5.095666e-01 
6.599835e-01 
1.163187e+00 
9.724669e-01 
7.875599e-01 
6.244266e-01 
5.093336e-01 
4.724070e-01 
5.036988e-01 
5.982690e-01 
7.404565e-01 
1.259585e+00 
1.080090e+00 
9.143887e-01 
7.741640e-01 
6.761817e-01 
6.411561e-01 
6.665846e-01 
7.488549e-01 
8.850722e-01 
1.398334e+00 
1.229258e+00 
1.079896e+00 
9.590279e-01 
8.774645e-01 
8.472777e-01 
8.715718e-01 
9.511118e-01 
1.086955e+00 
SCALARS errors=2 double 1 
LOOKUP_TABLE default 
4.047499e-02 
7.133142e-04 
-3.503074e-02 
-6.068295e-02 
-7.255413e-02 
-6.685194e-02 
-4.037074e-02 
8.471913e-04 
4.045729e-02 
1.822765e-03 
-4.615315e-02 
-8.833610e-02 
-1.204706e-01 
-1.407110e-01 
-1.440663e-01 
-1.179268e-01 
-6.547613e-02 
-7.342825e-03 
-2.700953e-02 
-7.763902e-02 
-1.209106e-01 
-1.610890e-01 
-1.986016e-01 
-2.211174e-01 
-1.960791e-01 
-1.291125e-01 
-5.266283e-02 
-4.077091e-02 
-9.143606e-02 
-1.346057e-01 
-1.893408e-01 
-2.678785e-01 
-3.369909e-01 
-2.793324e-01 
-1.769977e-01 
-8.294017e-02 
-4.272180e-02 
-8.937876e-02 
-1.317182e-01 
-1.995156e-01 
0.000000e+00 
-5.329791e-01 
-3.201763e-01 
-1.877155e-01 
-8.878243e-02 
-3.274660e-02 
-7.680421e-02 
-1.171567e-01 
-1.771081e-01 
-2.606262e-01 
-3.197602e-01 
-2.432190e-01 
-1.505497e-01 
-6.941406e-02 
-1.689586e-02 
-5.443296e-02 
-8.617205e-02 
-1.173198e-01 
-1.503166e-01 
-1.724070e-01 
-1.446818e-01 
-9.116221e-02 
-3.906872e-02 
-1.846726e-03 
-3.008968e-02 
-5.372854e-02 
-7.277619e-02 
-8.561232e-02 
-9.115614e-02 
-7.601521e-02 
-4.746705e-02 
-2.441201e-02 
2.447228e-03 
-1.504444e-02 
-2.989601e-02 
-4.099388e-02 
-4.668809e-02 
-4.727772e-02 
-4.079540e-02 
-3.307777e-02 
-3.695514e-02 
SCALARS numer_sol=3 double 1 
LOOKUP_TABLE default 
1.360807e+00 
1.219145e+00 
1.094234e+00 
9.897680e-01 
9.148403e-01 
8.772763e-01 
8.781420e-01 
9.174228e-01 
9.998822e-01 
1.259744e+00 
1.104761e+00 
9.606386e-01 
8.348595e-01 
7.449816e-01 
7.080535e-01 
7.207840e-01 
7.743232e-01 
8.667859e-01 
1.178679e+00 
1.004927e+00 
8.333285e-01 
6.806042e-01 
5.708826e-01 
5.364088e-01 
5.709499e-01 
6.490720e-01 
7.591703e-01 
1.119640e+00 
9.305069e-01 
7.349462e-01 
5.602808e-01 
4.365834e-01 
4.030791e-01 
4.506905e-01 
5.519779e-01 
6.824852e-01 
1.096835e+00 
8.970092e-01 
6.905634e-01 
5.122604e-01 
5.000000e-02 
3.499215e-01 
3.875266e-01 
5.042983e-01 
6.488487e-01 
1.109815e+00 
9.143192e-01 
7.171212e-01 
5.477031e-01 
4.283265e-01 
3.841599e-01 
4.134889e-01 
5.246672e-01 
6.679229e-01 
1.162677e+00 
9.773569e-01 
7.961099e-01 
6.354332e-01 
5.209052e-01 
4.858927e-01 
5.173433e-01 
6.086334e-01 
7.424819e-01 
1.253976e+00 
1.080445e+00 
9.195367e-01 
7.825925e-01 
6.854378e-01 
6.507947e-01 
6.744460e-01 
7.514641e-01 
8.782528e-01 
1.384984e+00 
1.221823e+00 
1.077523e+00 
9.601354e-01 
8.793014e-01 
8.491085e-01 
8.703270e-01 
9.434714e-01 
1.069341e+00 
SCALARS errors=3 double 1 
LOOKUP_TABLE default 
3.997365e-02 
-4.931144e-03 
-4.423424e-02 
-7.173402e-02 
-8.406389e-02 
-7.727629e-02 
-4.736563e-02 
6.112145e-04 
5.011778e-02 
-2.005563e-03 
-5.476066e-02 
-9.997843e-02 
-1.334717e-01 
-1.544122e-01 
-1.580535e-01 
-1.302145e-01 
-7.293540e-02 
-6.125708e-03 
-3.238761e-02 
-8.689262e-02 
-1.319407e-01 
-1.734974e-01 
-2.118656e-01 
-2.364088e-01 
-2.119330e-01 
-1.419652e-01 
-5.778244e-02 
-4.488533e-02 
-9.973051e-02 
-1.443768e-01 
-2.012638e-01 
-2.830300e-01 
-3.530791e-01 
-2.971371e-01 
-1.929609e-01 
-9.191582e-02 
-4.683488e-02 
-9.700919e-02 
-1.405634e-01 
-2.122604e-01 
0.000000e+00 
-5.499215e-01 
-3.375266e-01 
-2.042983e-01 
-9.884871e-02 
-3.506035e-02 
-8.354283e-02 
-1.265518e-01 
-1.886861e-01 
-2.747731e-01 
-3.341599e-01 
-2.599355e-01 
-1.656502e-01 
-7.735345e-02 
-1.638540e-02 
-5.932287e-02 
-9.472211e-02 
-1.283264e-01 
-1.618882e-01 
-1.858927e-01 
-1.583263e-01 
-1.015266e-01 
-4.109404e-02 
3.762198e-03 
-3.044490e-02 
-5.887649e-02 
-8.120471e-02 
-9.486841e-02 
-1.007947e-01 
-8.387661e-02 
-5.007627e-02 
-1.759266e-02 
1.579735e-02 
-7.609410e-03 
-2.752277e-02 
-4.210144e-02 
-4.852498e-02 
-4.910852e-02 
-3.955063e-02 
-2.543739e-02 
-1.934074e-02 
