# vtk DataFile Version 2.0 
Quadtree Mesh 
ASCII 
DATASET UNSTRUCTURED_GRID 
POINTS 81 double 
-1.000000e+00 -1.000000e+00 0.000000e+00
-7.500000e-01 -1.000000e+00 0.000000e+00
-5.000000e-01 -1.000000e+00 0.000000e+00
-2.500000e-01 -1.000000e+00 0.000000e+00
0.000000e+00 -1.000000e+00 0.000000e+00
2.500000e-01 -1.000000e+00 0.000000e+00
5.000000e-01 -1.000000e+00 0.000000e+00
7.500000e-01 -1.000000e+00 0.000000e+00
1.000000e+00 -1.000000e+00 0.000000e+00
-1.000000e+00 -7.500000e-01 0.000000e+00
-7.500000e-01 -7.500000e-01 0.000000e+00
-5.000000e-01 -7.500000e-01 0.000000e+00
-2.500000e-01 -7.500000e-01 0.000000e+00
0.000000e+00 -7.500000e-01 0.000000e+00
2.500000e-01 -7.500000e-01 0.000000e+00
5.000000e-01 -7.500000e-01 0.000000e+00
7.500000e-01 -7.500000e-01 0.000000e+00
1.000000e+00 -7.500000e-01 0.000000e+00
-1.000000e+00 -5.000000e-01 0.000000e+00
-7.500000e-01 -5.000000e-01 0.000000e+00
-5.000000e-01 -5.000000e-01 0.000000e+00
-2.500000e-01 -5.000000e-01 0.000000e+00
0.000000e+00 -5.000000e-01 0.000000e+00
2.500000e-01 -5.000000e-01 0.000000e+00
5.000000e-01 -5.000000e-01 0.000000e+00
7.500000e-01 -5.000000e-01 0.000000e+00
1.000000e+00 -5.000000e-01 0.000000e+00
-1.000000e+00 -2.500000e-01 0.000000e+00
-7.500000e-01 -2.500000e-01 0.000000e+00
-5.000000e-01 -2.500000e-01 0.000000e+00
-2.500000e-01 -2.500000e-01 0.000000e+00
0.000000e+00 -2.500000e-01 0.000000e+00
2.500000e-01 -2.500000e-01 0.000000e+00
5.000000e-01 -2.500000e-01 0.000000e+00
7.500000e-01 -2.500000e-01 0.000000e+00
1.000000e+00 -2.500000e-01 0.000000e+00
-1.000000e+00 0.000000e+00 0.000000e+00
-7.500000e-01 0.000000e+00 0.000000e+00
-5.000000e-01 0.000000e+00 0.000000e+00
-2.500000e-01 0.000000e+00 0.000000e+00
0.000000e+00 0.000000e+00 0.000000e+00
2.500000e-01 0.000000e+00 0.000000e+00
5.000000e-01 0.000000e+00 0.000000e+00
7.500000e-01 0.000000e+00 0.000000e+00
1.000000e+00 0.000000e+00 0.000000e+00
-1.000000e+00 2.500000e-01 0.000000e+00
-7.500000e-01 2.500000e-01 0.000000e+00
-5.000000e-01 2.500000e-01 0.000000e+00
-2.500000e-01 2.500000e-01 0.000000e+00
0.000000e+00 2.500000e-01 0.000000e+00
2.500000e-01 2.500000e-01 0.000000e+00
5.000000e-01 2.500000e-01 0.000000e+00
7.500000e-01 2.500000e-01 0.000000e+00
1.000000e+00 2.500000e-01 0.000000e+00
-1.000000e+00 5.000000e-01 0.000000e+00
-7.500000e-01 5.000000e-01 0.000000e+00
-5.000000e-01 5.000000e-01 0.000000e+00
-2.500000e-01 5.000000e-01 0.000000e+00
0.000000e+00 5.000000e-01 0.000000e+00
2.500000e-01 5.000000e-01 0.000000e+00
5.000000e-01 5.000000e-01 0.000000e+00
7.500000e-01 5.000000e-01 0.000000e+00
1.000000e+00 5.000000e-01 0.000000e+00
-1.000000e+00 7.500000e-01 0.000000e+00
-7.500000e-01 7.500000e-01 0.000000e+00
-5.000000e-01 7.500000e-01 0.000000e+00
-2.500000e-01 7.500000e-01 0.000000e+00
0.000000e+00 7.500000e-01 0.000000e+00
2.500000e-01 7.500000e-01 0.000000e+00
5.000000e-01 7.500000e-01 0.000000e+00
7.500000e-01 7.500000e-01 0.000000e+00
1.000000e+00 7.500000e-01 0.000000e+00
-1.000000e+00 1.000000e+00 0.000000e+00
-7.500000e-01 1.000000e+00 0.000000e+00
-5.000000e-01 1.000000e+00 0.000000e+00
-2.500000e-01 1.000000e+00 0.000000e+00
0.000000e+00 1.000000e+00 0.000000e+00
2.500000e-01 1.000000e+00 0.000000e+00
5.000000e-01 1.000000e+00 0.000000e+00
7.500000e-01 1.000000e+00 0.000000e+00
1.000000e+00 1.000000e+00 0.000000e+00
CELLS 64 320 
4 0 1 10 9
4 9 10 19 18
4 18 19 28 27
4 27 28 37 36
4 36 37 46 45
4 45 46 55 54
4 54 55 64 63
4 63 64 73 72
4 1 2 11 10
4 10 11 20 19
4 19 20 29 28
4 28 29 38 37
4 37 38 47 46
4 46 47 56 55
4 55 56 65 64
4 64 65 74 73
4 2 3 12 11
4 11 12 21 20
4 20 21 30 29
4 29 30 39 38
4 38 39 48 47
4 47 48 57 56
4 56 57 66 65
4 65 66 75 74
4 3 4 13 12
4 12 13 22 21
4 21 22 31 30
4 30 31 40 39
4 39 40 49 48
4 48 49 58 57
4 57 58 67 66
4 66 67 76 75
4 4 5 14 13
4 13 14 23 22
4 22 23 32 31
4 31 32 41 40
4 40 41 50 49
4 49 50 59 58
4 58 59 68 67
4 67 68 77 76
4 5 6 15 14
4 14 15 24 23
4 23 24 33 32
4 32 33 42 41
4 41 42 51 50
4 50 51 60 59
4 59 60 69 68
4 68 69 78 77
4 6 7 16 15
4 15 16 25 24
4 24 25 34 33
4 33 34 43 42
4 42 43 52 51
4 51 52 61 60
4 60 61 70 69
4 69 70 79 78
4 7 8 17 16
4 16 17 26 25
4 25 26 35 34
4 34 35 44 43
4 43 44 53 52
4 52 53 62 61
4 61 62 71 70
4 70 71 80 79
CELL_TYPES 64 
9 
9 
9 
9 
9 
9 
9 
9 
9 
9 
9 
9 
9 
9 
9 
9 
9 
9 
9 
9 
9 
9 
9 
9 
9 
9 
9 
9 
9 
9 
9 
9 
9 
9 
9 
9 
9 
9 
9 
9 
9 
9 
9 
9 
9 
9 
9 
9 
9 
9 
9 
9 
9 
9 
9 
9 
9 
9 
9 
9 
9 
9 
9 
9 
POINT_DATA 81 
SCALARS iniData double 1 
LOOKUP_TABLE default 
1.400781e+00 
1.214214e+00 
1.050000e+00 
9.180340e-01 
8.307764e-01 
8.000000e-01 
8.307764e-01 
9.180340e-01 
1.050000e+00 
1.257738e+00 
1.050000e+00 
8.606602e-01 
7.013878e-01 
5.905694e-01 
5.500000e-01 
5.905694e-01 
7.013878e-01 
8.606602e-01 
1.146291e+00 
9.180340e-01 
7.013878e-01 
5.071068e-01 
3.590170e-01 
3.000000e-01 
3.590170e-01 
5.071068e-01 
7.013878e-01 
1.074755e+00 
8.307764e-01 
5.905694e-01 
3.590170e-01 
1.535534e-01 
5.000000e-02 
1.535534e-01 
3.590170e-01 
5.905694e-01 
1.050000e+00 
8.000000e-01 
5.500000e-01 
3.000000e-01 
5.000000e-02 
-2.000000e-01 
5.000000e-02 
3.000000e-01 
5.500000e-01 
1.074755e+00 
8.307764e-01 
5.905694e-01 
3.590170e-01 
1.535534e-01 
5.000000e-02 
1.535534e-01 
3.590170e-01 
5.905694e-01 
1.146291e+00 
9.180340e-01 
7.013878e-01 
5.071068e-01 
3.590170e-01 
3.000000e-01 
3.590170e-01 
5.071068e-01 
7.013878e-01 
1.257738e+00 
1.050000e+00 
8.606602e-01 
7.013878e-01 
5.905694e-01 
5.500000e-01 
5.905694e-01 
7.013878e-01 
8.606602e-01 
1.400781e+00 
1.214214e+00 
1.050000e+00 
9.180340e-01 
8.307764e-01 
8.000000e-01 
8.307764e-01 
9.180340e-01 
1.050000e+00 
SCALARS numer_sol=0 double 1 
LOOKUP_TABLE default 
1.548478e+00 
1.360199e+00 
1.195483e+00 
1.067641e+00 
9.860995e-01 
9.590073e-01 
9.926137e-01 
1.084087e+00 
1.230963e+00 
1.390452e+00 
1.183357e+00 
9.965072e-01 
8.416609e-01 
7.376920e-01 
7.052251e-01 
7.468510e-01 
8.562695e-01 
1.019434e+00 
1.269128e+00 
1.037597e+00 
8.205433e-01 
6.323707e-01 
5.042399e-01 
4.633797e-01 
5.204045e-01 
6.574975e-01 
8.468539e-01 
1.183941e+00 
9.341452e-01 
6.890328e-01 
4.758158e-01 
3.158440e-01 
2.697273e-01 
3.353260e-01 
5.069255e-01 
7.232754e-01 
1.146892e+00 
8.867407e-01 
6.281117e-01 
4.033843e-01 
5.000000e-02 
1.650510e-01 
2.375819e-01 
4.300768e-01 
6.660992e-01 
1.160183e+00 
9.071023e-01 
6.565857e-01 
4.366442e-01 
2.687508e-01 
2.110430e-01 
2.771906e-01 
4.601039e-01 
6.880255e-01 
1.222875e+00 
9.864529e-01 
7.588940e-01 
5.546444e-01 
4.095376e-01 
3.675475e-01 
4.329094e-01 
5.810800e-01 
7.870412e-01 
1.325491e+00 
1.110875e+00 
9.134641e-01 
7.461252e-01 
6.319586e-01 
5.969450e-01 
6.451306e-01 
7.631444e-01 
9.430960e-01 
1.470669e+00 
1.274560e+00 
1.102325e+00 
9.623001e-01 
8.731695e-01 
8.432638e-01 
8.816844e-01 
9.835915e-01 
1.151458e+00 
SCALARS errors=0 double 1 
LOOKUP_TABLE default 
-1.476967e-01 
-1.459854e-01 
-1.454830e-01 
-1.496070e-01 
-1.553231e-01 
-1.590073e-01 
-1.618373e-01 
-1.660535e-01 
-1.809626e-01 
-1.327141e-01 
-1.333570e-01 
-1.358471e-01 
-1.402731e-01 
-1.471226e-01 
-1.552251e-01 
-1.562816e-01 
-1.548817e-01 
-1.587735e-01 
-1.228372e-01 
-1.195632e-01 
-1.191555e-01 
-1.252639e-01 
-1.452229e-01 
-1.633797e-01 
-1.613875e-01 
-1.503907e-01 
-1.454660e-01 
-1.091863e-01 
-1.033688e-01 
-9.846336e-02 
-1.167988e-01 
-1.622906e-01 
-2.197273e-01 
-1.817727e-01 
-1.479085e-01 
-1.327060e-01 
-9.689155e-02 
-8.674065e-02 
-7.811165e-02 
-1.033843e-01 
0.000000e+00 
-3.650510e-01 
-1.875819e-01 
-1.300768e-01 
-1.160992e-01 
-8.542813e-02 
-7.632593e-02 
-6.601633e-02 
-7.762716e-02 
-1.151974e-01 
-1.610430e-01 
-1.236372e-01 
-1.010869e-01 
-9.745604e-02 
-7.658380e-02 
-6.841892e-02 
-5.750619e-02 
-4.753763e-02 
-5.052063e-02 
-6.754754e-02 
-7.389244e-02 
-7.397321e-02 
-8.565342e-02 
-6.775269e-02 
-6.087459e-02 
-5.280396e-02 
-4.473742e-02 
-4.138914e-02 
-4.694496e-02 
-5.456122e-02 
-6.175655e-02 
-8.243581e-02 
-6.988806e-02 
-6.034608e-02 
-5.232455e-02 
-4.426610e-02 
-4.239306e-02 
-4.326379e-02 
-5.090803e-02 
-6.555750e-02 
-1.014580e-01 
SCALARS numer_sol=1 double 1 
LOOKUP_TABLE default 
1.411533e+00 
1.229434e+00 
1.073694e+00 
9.496687e-01 
8.660444e-01 
8.329638e-01 
8.582388e-01 
9.456276e-01 
1.099249e+00 
1.269172e+00 
1.073924e+00 
9.018051e-01 
7.601934e-01 
6.607807e-01 
6.180505e-01 
6.407157e-01 
7.312453e-01 
8.894928e-01 
1.163027e+00 
9.540208e-01 
7.630161e-01 
5.995983e-01 
4.829323e-01 
4.321396e-01 
4.584078e-01 
5.591459e-01 
7.267886e-01 
1.095372e+00 
8.752980e-01 
6.672299e-01 
4.822191e-01 
3.404728e-01 
2.969416e-01 
3.255019e-01 
4.398708e-01 
6.184128e-01 
1.069980e+00 
8.449138e-01 
6.285548e-01 
4.303195e-01 
5.000000e-02 
2.350038e-01 
2.681812e-01 
3.895446e-01 
5.756077e-01 
1.089034e+00 
8.677227e-01 
6.563685e-01 
4.742436e-01 
3.352798e-01 
2.853423e-01 
3.050919e-01 
4.233404e-01 
6.076257e-01 
1.151335e+00 
9.398535e-01 
7.436036e-01 
5.734374e-01 
4.517774e-01 
4.019477e-01 
4.292080e-01 
5.354269e-01 
7.119659e-01 
1.255574e+00 
1.055996e+00 
8.778214e-01 
7.300505e-01 
6.268590e-01 
5.842458e-01 
6.106389e-01 
7.084253e-01 
8.772530e-01 
1.401294e+00 
1.213177e+00 
1.051359e+00 
9.220813e-01 
8.356299e-01 
8.031605e-01 
8.324009e-01 
9.283295e-01 
1.094504e+00 
SCALARS errors=1 double 1 
LOOKUP_TABLE default 
-1.075233e-02 
-1.522076e-02 
-2.369380e-02 
-3.163471e-02 
-3.526799e-02 
-3.296382e-02 
-2.746243e-02 
-2.759364e-02 
-4.924872e-02 
-1.143442e-02 
-2.392434e-02 
-4.114496e-02 
-5.880554e-02 
-7.021132e-02 
-6.805047e-02 
-5.014632e-02 
-2.985748e-02 
-2.883266e-02 
-1.673543e-02 
-3.598683e-02 
-6.162830e-02 
-9.249151e-02 
-1.239153e-01 
-1.321396e-01 
-9.939078e-02 
-5.203915e-02 
-2.540077e-02 
-2.061668e-02 
-4.452156e-02 
-7.666048e-02 
-1.232021e-01 
-1.869194e-01 
-2.469416e-01 
-1.719485e-01 
-8.085381e-02 
-2.784341e-02 
-1.997970e-02 
-4.491384e-02 
-7.855475e-02 
-1.303195e-01 
0.000000e+00 
-4.350038e-01 
-2.181812e-01 
-8.954458e-02 
-2.560771e-02 
-1.427944e-02 
-3.694634e-02 
-6.579907e-02 
-1.152266e-01 
-1.817264e-01 
-2.353423e-01 
-1.515385e-01 
-6.432338e-02 
-1.705624e-02 
-5.043621e-03 
-2.181956e-02 
-4.221576e-02 
-6.633067e-02 
-9.276041e-02 
-1.019477e-01 
-7.019096e-02 
-2.832012e-02 
-1.057805e-02 
2.164233e-03 
-5.995824e-03 
-1.716119e-02 
-2.866266e-02 
-3.628963e-02 
-3.424584e-02 
-2.006947e-02 
-7.037480e-03 
-1.659285e-02 
-5.129729e-04 
1.036836e-03 
-1.359410e-03 
-4.047333e-03 
-4.853522e-03 
-3.160549e-03 
-1.624463e-03 
-1.029551e-02 
-4.450394e-02 
SCALARS numer_sol=2 double 1 
LOOKUP_TABLE default 
1.359429e+00 
1.213756e+00 
1.086014e+00 
9.801645e-01 
9.052762e-01 
8.695833e-01 
8.750107e-01 
9.224462e-01 
1.016313e+00 
1.256033e+00 
1.097001e+00 
9.500276e-01 
8.226724e-01 
7.320003e-01 
6.952176e-01 
7.104732e-01 
7.699058e-01 
8.722472e-01 
1.173900e+00 
9.965865e-01 
8.228899e-01 
6.682149e-01 
5.571086e-01 
5.208583e-01 
5.555210e-01 
6.374424e-01 
7.562104e-01 
1.115471e+00 
9.224374e-01 
7.250810e-01 
5.479022e-01 
4.208186e-01 
3.864226e-01 
4.323846e-01 
5.359035e-01 
6.740751e-01 
1.092725e+00 
8.892795e-01 
6.812304e-01 
4.989360e-01 
5.000000e-02 
3.325599e-01 
3.692799e-01 
4.868621e-01 
6.383590e-01 
1.107317e+00 
9.074331e-01 
7.073590e-01 
5.359057e-01 
4.139949e-01 
3.694413e-01 
3.959247e-01 
5.085354e-01 
6.591952e-01 
1.163129e+00 
9.725401e-01 
7.875433e-01 
6.245230e-01 
5.092233e-01 
4.721166e-01 
5.031337e-01 
5.975518e-01 
7.399285e-01 
1.259711e+00 
1.080334e+00 
9.146397e-01 
7.743534e-01 
6.760695e-01 
6.409526e-01 
6.663157e-01 
7.486414e-01 
8.850942e-01 
1.398599e+00 
1.229530e+00 
1.080138e+00 
9.590996e-01 
8.771892e-01 
8.471383e-01 
8.715034e-01 
9.512214e-01 
1.087352e+00 
SCALARS errors=2 double 1 
LOOKUP_TABLE default 
4.135230e-02 
4.573511e-04 
-3.601427e-02 
-6.213054e-02 
-7.449977e-02 
-6.958330e-02 
-4.423431e-02 
-4.412183e-03 
3.368734e-02 
1.704670e-03 
-4.700100e-02 
-8.936742e-02 
-1.212845e-01 
-1.414309e-01 
-1.452176e-01 
-1.199038e-01 
-6.851799e-02 
-1.158702e-02 
-2.760923e-02 
-7.855250e-02 
-1.215021e-01 
-1.611081e-01 
-1.980916e-01 
-2.208583e-01 
-1.965040e-01 
-1.303356e-01 
-5.482257e-02 
-4.071572e-02 
-9.166095e-02 
-1.345116e-01 
-1.888852e-01 
-2.672652e-01 
-3.364226e-01 
-2.788313e-01 
-1.768865e-01 
-8.350569e-02 
-4.272550e-02 
-8.927952e-02 
-1.312304e-01 
-1.989360e-01 
0.000000e+00 
-5.325599e-01 
-3.192799e-01 
-1.868621e-01 
-8.835903e-02 
-3.256174e-02 
-7.665665e-02 
-1.167896e-01 
-1.768887e-01 
-2.604415e-01 
-3.194413e-01 
-2.423713e-01 
-1.495184e-01 
-6.862577e-02 
-1.683754e-02 
-5.450606e-02 
-8.615543e-02 
-1.174162e-01 
-1.502063e-01 
-1.721166e-01 
-1.441167e-01 
-9.044503e-02 
-3.854071e-02 
-1.972622e-03 
-3.033355e-02 
-5.397950e-02 
-7.296554e-02 
-8.550006e-02 
-9.095258e-02 
-7.574627e-02 
-4.725358e-02 
-2.443404e-02 
2.182285e-03 
-1.531683e-02 
-3.013802e-02 
-4.106558e-02 
-4.641280e-02 
-4.713829e-02 
-4.072699e-02 
-3.318737e-02 
-3.735166e-02 
SCALARS numer_sol=3 double 1 
LOOKUP_TABLE default 
1.379581e+00 
1.226057e+00 
1.093145e+00 
9.845391e-01 
9.083943e-01 
8.715938e-01 
8.747726e-01 
9.174054e-01 
1.004262e+00 
1.275663e+00 
1.110349e+00 
9.599677e-01 
8.319515e-01 
7.418945e-01 
7.056853e-01 
7.200511e-01 
7.763752e-01 
8.726799e-01 
1.191538e+00 
1.009749e+00 
8.344308e-01 
6.800179e-01 
5.706072e-01 
5.367387e-01 
5.721349e-01 
6.521834e-01 
7.654689e-01 
1.132042e+00 
9.351538e-01 
7.365534e-01 
5.609488e-01 
4.369481e-01 
4.041788e-01 
4.525633e-01 
5.550885e-01 
6.882375e-01 
1.103592e+00 
8.996969e-01 
6.923380e-01 
5.133193e-01 
5.000000e-02 
3.511350e-01 
3.890460e-01 
5.065844e-01 
6.533560e-01 
1.114692e+00 
9.169955e-01 
7.202618e-01 
5.495532e-01 
4.297142e-01 
3.862857e-01 
4.154491e-01 
5.261961e-01 
6.710975e-01 
1.164325e+00 
9.788666e-01 
7.992823e-01 
6.377573e-01 
5.221772e-01 
4.864794e-01 
5.175800e-01 
6.092241e-01 
7.451177e-01 
1.251134e+00 
1.079381e+00 
9.211492e-01 
7.834454e-01 
6.853846e-01 
6.508635e-01 
6.754261e-01 
7.541097e-01 
8.840120e-01 
1.375731e+00 
1.216376e+00 
1.076480e+00 
9.599390e-01 
8.800872e-01 
8.512963e-01 
8.764448e-01 
9.542315e-01 
1.085689e+00 
SCALARS errors=3 double 1 
LOOKUP_TABLE default 
2.120000e-02 
-1.184352e-02 
-4.314464e-02 
-6.650510e-02 
-7.761786e-02 
-7.159379e-02 
-4.399622e-02 
6.285526e-04 
4.573848e-02 
-1.792549e-02 
-6.034871e-02 
-9.930755e-02 
-1.305637e-01 
-1.513251e-01 
-1.556853e-01 
-1.294817e-01 
-7.498738e-02 
-1.201969e-02 
-4.524673e-02 
-9.171484e-02 
-1.330430e-01 
-1.729111e-01 
-2.115902e-01 
-2.367387e-01 
-2.131179e-01 
-1.450766e-01 
-6.408111e-02 
-5.728705e-02 
-1.043774e-01 
-1.459840e-01 
-2.019318e-01 
-2.833947e-01 
-3.541788e-01 
-2.990099e-01 
-1.960715e-01 
-9.766810e-02 
-5.359245e-02 
-9.969694e-02 
-1.423380e-01 
-2.133193e-01 
0.000000e+00 
-5.511350e-01 
-3.390460e-01 
-2.065844e-01 
-1.033560e-01 
-3.993683e-02 
-8.621906e-02 
-1.296924e-01 
-1.905362e-01 
-2.761609e-01 
-3.362857e-01 
-2.618957e-01 
-1.671791e-01 
-8.052808e-02 
-1.803373e-02 
-6.083260e-02 
-9.789448e-02 
-1.306506e-01 
-1.631602e-01 
-1.864794e-01 
-1.585630e-01 
-1.021173e-01 
-4.372989e-02 
6.603631e-03 
-2.938060e-02 
-6.048901e-02 
-8.205757e-02 
-9.481520e-02 
-1.008635e-01 
-8.485669e-02 
-5.272192e-02 
-2.335183e-02 
2.504964e-02 
-2.162289e-03 
-2.648047e-02 
-4.190498e-02 
-4.931079e-02 
-5.129629e-02 
-4.566844e-02 
-3.619756e-02 
-3.568911e-02 
