# vtk DataFile Version 2.0 
Quadtree Mesh 
ASCII 
DATASET UNSTRUCTURED_GRID 
POINTS 1089 double 
-1.000000e+00 -1.000000e+00 0.000000e+00
-9.375000e-01 -1.000000e+00 0.000000e+00
-8.750000e-01 -1.000000e+00 0.000000e+00
-8.125000e-01 -1.000000e+00 0.000000e+00
-7.500000e-01 -1.000000e+00 0.000000e+00
-6.875000e-01 -1.000000e+00 0.000000e+00
-6.250000e-01 -1.000000e+00 0.000000e+00
-5.625000e-01 -1.000000e+00 0.000000e+00
-5.000000e-01 -1.000000e+00 0.000000e+00
-4.375000e-01 -1.000000e+00 0.000000e+00
-3.750000e-01 -1.000000e+00 0.000000e+00
-3.125000e-01 -1.000000e+00 0.000000e+00
-2.500000e-01 -1.000000e+00 0.000000e+00
-1.875000e-01 -1.000000e+00 0.000000e+00
-1.250000e-01 -1.000000e+00 0.000000e+00
-6.250000e-02 -1.000000e+00 0.000000e+00
0.000000e+00 -1.000000e+00 0.000000e+00
6.250000e-02 -1.000000e+00 0.000000e+00
1.250000e-01 -1.000000e+00 0.000000e+00
1.875000e-01 -1.000000e+00 0.000000e+00
2.500000e-01 -1.000000e+00 0.000000e+00
3.125000e-01 -1.000000e+00 0.000000e+00
3.750000e-01 -1.000000e+00 0.000000e+00
4.375000e-01 -1.000000e+00 0.000000e+00
5.000000e-01 -1.000000e+00 0.000000e+00
5.625000e-01 -1.000000e+00 0.000000e+00
6.250000e-01 -1.000000e+00 0.000000e+00
6.875000e-01 -1.000000e+00 0.000000e+00
7.500000e-01 -1.000000e+00 0.000000e+00
8.125000e-01 -1.000000e+00 0.000000e+00
8.750000e-01 -1.000000e+00 0.000000e+00
9.375000e-01 -1.000000e+00 0.000000e+00
1.000000e+00 -1.000000e+00 0.000000e+00
-1.000000e+00 -9.375000e-01 0.000000e+00
-9.375000e-01 -9.375000e-01 0.000000e+00
-8.750000e-01 -9.375000e-01 0.000000e+00
-8.125000e-01 -9.375000e-01 0.000000e+00
-7.500000e-01 -9.375000e-01 0.000000e+00
-6.875000e-01 -9.375000e-01 0.000000e+00
-6.250000e-01 -9.375000e-01 0.000000e+00
-5.625000e-01 -9.375000e-01 0.000000e+00
-5.000000e-01 -9.375000e-01 0.000000e+00
-4.375000e-01 -9.375000e-01 0.000000e+00
-3.750000e-01 -9.375000e-01 0.000000e+00
-3.125000e-01 -9.375000e-01 0.000000e+00
-2.500000e-01 -9.375000e-01 0.000000e+00
-1.875000e-01 -9.375000e-01 0.000000e+00
-1.250000e-01 -9.375000e-01 0.000000e+00
-6.250000e-02 -9.375000e-01 0.000000e+00
0.000000e+00 -9.375000e-01 0.000000e+00
6.250000e-02 -9.375000e-01 0.000000e+00
1.250000e-01 -9.375000e-01 0.000000e+00
1.875000e-01 -9.375000e-01 0.000000e+00
2.500000e-01 -9.375000e-01 0.000000e+00
3.125000e-01 -9.375000e-01 0.000000e+00
3.750000e-01 -9.375000e-01 0.000000e+00
4.375000e-01 -9.375000e-01 0.000000e+00
5.000000e-01 -9.375000e-01 0.000000e+00
5.625000e-01 -9.375000e-01 0.000000e+00
6.250000e-01 -9.375000e-01 0.000000e+00
6.875000e-01 -9.375000e-01 0.000000e+00
7.500000e-01 -9.375000e-01 0.000000e+00
8.125000e-01 -9.375000e-01 0.000000e+00
8.750000e-01 -9.375000e-01 0.000000e+00
9.375000e-01 -9.375000e-01 0.000000e+00
1.000000e+00 -9.375000e-01 0.000000e+00
-1.000000e+00 -8.750000e-01 0.000000e+00
-9.375000e-01 -8.750000e-01 0.000000e+00
-8.750000e-01 -8.750000e-01 0.000000e+00
-8.125000e-01 -8.750000e-01 0.000000e+00
-7.500000e-01 -8.750000e-01 0.000000e+00
-6.875000e-01 -8.750000e-01 0.000000e+00
-6.250000e-01 -8.750000e-01 0.000000e+00
-5.625000e-01 -8.750000e-01 0.000000e+00
-5.000000e-01 -8.750000e-01 0.000000e+00
-4.375000e-01 -8.750000e-01 0.000000e+00
-3.750000e-01 -8.750000e-01 0.000000e+00
-3.125000e-01 -8.750000e-01 0.000000e+00
-2.500000e-01 -8.750000e-01 0.000000e+00
-1.875000e-01 -8.750000e-01 0.000000e+00
-1.250000e-01 -8.750000e-01 0.000000e+00
-6.250000e-02 -8.750000e-01 0.000000e+00
0.000000e+00 -8.750000e-01 0.000000e+00
6.250000e-02 -8.750000e-01 0.000000e+00
1.250000e-01 -8.750000e-01 0.000000e+00
1.875000e-01 -8.750000e-01 0.000000e+00
2.500000e-01 -8.750000e-01 0.000000e+00
3.125000e-01 -8.750000e-01 0.000000e+00
3.750000e-01 -8.750000e-01 0.000000e+00
4.375000e-01 -8.750000e-01 0.000000e+00
5.000000e-01 -8.750000e-01 0.000000e+00
5.625000e-01 -8.750000e-01 0.000000e+00
6.250000e-01 -8.750000e-01 0.000000e+00
6.875000e-01 -8.750000e-01 0.000000e+00
7.500000e-01 -8.750000e-01 0.000000e+00
8.125000e-01 -8.750000e-01 0.000000e+00
8.750000e-01 -8.750000e-01 0.000000e+00
9.375000e-01 -8.750000e-01 0.000000e+00
1.000000e+00 -8.750000e-01 0.000000e+00
-1.000000e+00 -8.125000e-01 0.000000e+00
-9.375000e-01 -8.125000e-01 0.000000e+00
-8.750000e-01 -8.125000e-01 0.000000e+00
-8.125000e-01 -8.125000e-01 0.000000e+00
-7.500000e-01 -8.125000e-01 0.000000e+00
-6.875000e-01 -8.125000e-01 0.000000e+00
-6.250000e-01 -8.125000e-01 0.000000e+00
-5.625000e-01 -8.125000e-01 0.000000e+00
-5.000000e-01 -8.125000e-01 0.000000e+00
-4.375000e-01 -8.125000e-01 0.000000e+00
-3.750000e-01 -8.125000e-01 0.000000e+00
-3.125000e-01 -8.125000e-01 0.000000e+00
-2.500000e-01 -8.125000e-01 0.000000e+00
-1.875000e-01 -8.125000e-01 0.000000e+00
-1.250000e-01 -8.125000e-01 0.000000e+00
-6.250000e-02 -8.125000e-01 0.000000e+00
0.000000e+00 -8.125000e-01 0.000000e+00
6.250000e-02 -8.125000e-01 0.000000e+00
1.250000e-01 -8.125000e-01 0.000000e+00
1.875000e-01 -8.125000e-01 0.000000e+00
2.500000e-01 -8.125000e-01 0.000000e+00
3.125000e-01 -8.125000e-01 0.000000e+00
3.750000e-01 -8.125000e-01 0.000000e+00
4.375000e-01 -8.125000e-01 0.000000e+00
5.000000e-01 -8.125000e-01 0.000000e+00
5.625000e-01 -8.125000e-01 0.000000e+00
6.250000e-01 -8.125000e-01 0.000000e+00
6.875000e-01 -8.125000e-01 0.000000e+00
7.500000e-01 -8.125000e-01 0.000000e+00
8.125000e-01 -8.125000e-01 0.000000e+00
8.750000e-01 -8.125000e-01 0.000000e+00
9.375000e-01 -8.125000e-01 0.000000e+00
1.000000e+00 -8.125000e-01 0.000000e+00
-1.000000e+00 -7.500000e-01 0.000000e+00
-9.375000e-01 -7.500000e-01 0.000000e+00
-8.750000e-01 -7.500000e-01 0.000000e+00
-8.125000e-01 -7.500000e-01 0.000000e+00
-7.500000e-01 -7.500000e-01 0.000000e+00
-6.875000e-01 -7.500000e-01 0.000000e+00
-6.250000e-01 -7.500000e-01 0.000000e+00
-5.625000e-01 -7.500000e-01 0.000000e+00
-5.000000e-01 -7.500000e-01 0.000000e+00
-4.375000e-01 -7.500000e-01 0.000000e+00
-3.750000e-01 -7.500000e-01 0.000000e+00
-3.125000e-01 -7.500000e-01 0.000000e+00
-2.500000e-01 -7.500000e-01 0.000000e+00
-1.875000e-01 -7.500000e-01 0.000000e+00
-1.250000e-01 -7.500000e-01 0.000000e+00
-6.250000e-02 -7.500000e-01 0.000000e+00
0.000000e+00 -7.500000e-01 0.000000e+00
6.250000e-02 -7.500000e-01 0.000000e+00
1.250000e-01 -7.500000e-01 0.000000e+00
1.875000e-01 -7.500000e-01 0.000000e+00
2.500000e-01 -7.500000e-01 0.000000e+00
3.125000e-01 -7.500000e-01 0.000000e+00
3.750000e-01 -7.500000e-01 0.000000e+00
4.375000e-01 -7.500000e-01 0.000000e+00
5.000000e-01 -7.500000e-01 0.000000e+00
5.625000e-01 -7.500000e-01 0.000000e+00
6.250000e-01 -7.500000e-01 0.000000e+00
6.875000e-01 -7.500000e-01 0.000000e+00
7.500000e-01 -7.500000e-01 0.000000e+00
8.125000e-01 -7.500000e-01 0.000000e+00
8.750000e-01 -7.500000e-01 0.000000e+00
9.375000e-01 -7.500000e-01 0.000000e+00
1.000000e+00 -7.500000e-01 0.000000e+00
-1.000000e+00 -6.875000e-01 0.000000e+00
-9.375000e-01 -6.875000e-01 0.000000e+00
-8.750000e-01 -6.875000e-01 0.000000e+00
-8.125000e-01 -6.875000e-01 0.000000e+00
-7.500000e-01 -6.875000e-01 0.000000e+00
-6.875000e-01 -6.875000e-01 0.000000e+00
-6.250000e-01 -6.875000e-01 0.000000e+00
-5.625000e-01 -6.875000e-01 0.000000e+00
-5.000000e-01 -6.875000e-01 0.000000e+00
-4.375000e-01 -6.875000e-01 0.000000e+00
-3.750000e-01 -6.875000e-01 0.000000e+00
-3.125000e-01 -6.875000e-01 0.000000e+00
-2.500000e-01 -6.875000e-01 0.000000e+00
-1.875000e-01 -6.875000e-01 0.000000e+00
-1.250000e-01 -6.875000e-01 0.000000e+00
-6.250000e-02 -6.875000e-01 0.000000e+00
0.000000e+00 -6.875000e-01 0.000000e+00
6.250000e-02 -6.875000e-01 0.000000e+00
1.250000e-01 -6.875000e-01 0.000000e+00
1.875000e-01 -6.875000e-01 0.000000e+00
2.500000e-01 -6.875000e-01 0.000000e+00
3.125000e-01 -6.875000e-01 0.000000e+00
3.750000e-01 -6.875000e-01 0.000000e+00
4.375000e-01 -6.875000e-01 0.000000e+00
5.000000e-01 -6.875000e-01 0.000000e+00
5.625000e-01 -6.875000e-01 0.000000e+00
6.250000e-01 -6.875000e-01 0.000000e+00
6.875000e-01 -6.875000e-01 0.000000e+00
7.500000e-01 -6.875000e-01 0.000000e+00
8.125000e-01 -6.875000e-01 0.000000e+00
8.750000e-01 -6.875000e-01 0.000000e+00
9.375000e-01 -6.875000e-01 0.000000e+00
1.000000e+00 -6.875000e-01 0.000000e+00
-1.000000e+00 -6.250000e-01 0.000000e+00
-9.375000e-01 -6.250000e-01 0.000000e+00
-8.750000e-01 -6.250000e-01 0.000000e+00
-8.125000e-01 -6.250000e-01 0.000000e+00
-7.500000e-01 -6.250000e-01 0.000000e+00
-6.875000e-01 -6.250000e-01 0.000000e+00
-6.250000e-01 -6.250000e-01 0.000000e+00
-5.625000e-01 -6.250000e-01 0.000000e+00
-5.000000e-01 -6.250000e-01 0.000000e+00
-4.375000e-01 -6.250000e-01 0.000000e+00
-3.750000e-01 -6.250000e-01 0.000000e+00
-3.125000e-01 -6.250000e-01 0.000000e+00
-2.500000e-01 -6.250000e-01 0.000000e+00
-1.875000e-01 -6.250000e-01 0.000000e+00
-1.250000e-01 -6.250000e-01 0.000000e+00
-6.250000e-02 -6.250000e-01 0.000000e+00
0.000000e+00 -6.250000e-01 0.000000e+00
6.250000e-02 -6.250000e-01 0.000000e+00
1.250000e-01 -6.250000e-01 0.000000e+00
1.875000e-01 -6.250000e-01 0.000000e+00
2.500000e-01 -6.250000e-01 0.000000e+00
3.125000e-01 -6.250000e-01 0.000000e+00
3.750000e-01 -6.250000e-01 0.000000e+00
4.375000e-01 -6.250000e-01 0.000000e+00
5.000000e-01 -6.250000e-01 0.000000e+00
5.625000e-01 -6.250000e-01 0.000000e+00
6.250000e-01 -6.250000e-01 0.000000e+00
6.875000e-01 -6.250000e-01 0.000000e+00
7.500000e-01 -6.250000e-01 0.000000e+00
8.125000e-01 -6.250000e-01 0.000000e+00
8.750000e-01 -6.250000e-01 0.000000e+00
9.375000e-01 -6.250000e-01 0.000000e+00
1.000000e+00 -6.250000e-01 0.000000e+00
-1.000000e+00 -5.625000e-01 0.000000e+00
-9.375000e-01 -5.625000e-01 0.000000e+00
-8.750000e-01 -5.625000e-01 0.000000e+00
-8.125000e-01 -5.625000e-01 0.000000e+00
-7.500000e-01 -5.625000e-01 0.000000e+00
-6.875000e-01 -5.625000e-01 0.000000e+00
-6.250000e-01 -5.625000e-01 0.000000e+00
-5.625000e-01 -5.625000e-01 0.000000e+00
-5.000000e-01 -5.625000e-01 0.000000e+00
-4.375000e-01 -5.625000e-01 0.000000e+00
-3.750000e-01 -5.625000e-01 0.000000e+00
-3.125000e-01 -5.625000e-01 0.000000e+00
-2.500000e-01 -5.625000e-01 0.000000e+00
[...]
POINT_DATA 1089 
SCALARS iniData double 1 
LOOKUP_TABLE default 
1.400781e+00 
1.352468e+00 
1.305199e+00 
1.259077e+00 
1.214214e+00 
1.170732e+00 
1.128768e+00 
1.088471e+00 
1.050000e+00 
1.013530e+00 
9.792476e-01 
9.473475e-01 
9.180340e-01 
8.915156e-01 
8.680005e-01 
8.476909e-01 
8.307764e-01 
8.174263e-01 
8.077822e-01 
8.019512e-01 
8.000000e-01 
8.019512e-01 
8.077822e-01 
8.174263e-01 
8.307764e-01 
8.476909e-01 
8.680005e-01 
8.915156e-01 
9.180340e-01 
9.473475e-01 
9.792476e-01 
1.013530e+00 
1.050000e+00 
1.362500e+00 
1.312965e+00 
1.264422e+00 
1.216973e+00 
1.170732e+00 
1.125825e+00 
1.082393e+00 
1.040590e+00 
1.000586e+00 
9.625672e-01 
9.267348e-01 
8.933035e-01 
8.625000e-01 
8.345591e-01 
8.097184e-01 
7.882118e-01 
7.702609e-01 
7.560662e-01 
7.457966e-01 
7.395810e-01 
7.375000e-01 
7.395810e-01 
7.457966e-01 
7.560662e-01 
7.702609e-01 
7.882118e-01 
8.097184e-01 
8.345591e-01 
8.625000e-01 
8.933035e-01 
9.267348e-01 
9.625672e-01 
1.000586e+00 
1.325819e+00 
1.275053e+00 
1.225219e+00 
1.176420e+00 
1.128768e+00 
1.082393e+00 
1.037437e+00 
9.940608e-01 
9.524431e-01 
9.127809e-01 
8.752907e-01 
8.402073e-01 
8.077822e-01 
7.782797e-01 
7.519716e-01 
7.291293e-01 
7.100137e-01 
6.948638e-01 
6.838835e-01 
6.772293e-01 
6.750000e-01 
6.772293e-01 
6.838835e-01 
6.948638e-01 
7.100137e-01 
7.291293e-01 
7.519716e-01 
7.782797e-01 
8.077822e-01 
8.402073e-01 
8.752907e-01 
9.127809e-01 
9.524431e-01 
1.290858e+00 
1.238858e+00 
1.187725e+00 
1.137558e+00 
1.088471e+00 
1.040590e+00 
9.940608e-01 
9.490485e-01 
9.057379e-01 
8.643366e-01 
8.250762e-01 
7.882118e-01 
7.540211e-01 
7.228014e-01 
6.948638e-01 
6.705243e-01 
6.500919e-01 
6.338540e-01 
6.220592e-01 
6.149003e-01 
6.125000e-01 
6.149003e-01 
6.220592e-01 
6.338540e-01 
6.500919e-01 
6.705243e-01 
6.948638e-01 
7.228014e-01 
7.540211e-01 
7.882118e-01 
8.250762e-01 
8.643366e-01 
9.057379e-01 
1.257738e+00 
1.204513e+00 
1.152082e+00 
1.100541e+00 
1.050000e+00 
1.000586e+00 
9.524431e-01 
9.057379e-01 
8.606602e-01 
8.174263e-01 
7.762812e-01 
7.375000e-01 
7.013878e-01 
6.682777e-01 
6.385255e-01 
6.125000e-01 
5.905694e-01 
5.730823e-01 
5.603453e-01 
5.525997e-01 
5.500000e-01 
5.525997e-01 
5.603453e-01 
5.730823e-01 
5.905694e-01 
6.125000e-01 
6.385255e-01 
6.682777e-01 
7.013878e-01 
7.375000e-01 
7.762812e-01 
8.174263e-01 
8.606602e-01 
1.226589e+00 
1.172156e+00 
1.118439e+00 
1.065529e+00 
1.013530e+00 
9.625672e-01 
9.127809e-01 
8.643366e-01 
8.174263e-01 
7.722718e-01 
7.291293e-01 
6.882919e-01 
6.500919e-01 
6.149003e-01 
5.831228e-01 
5.551904e-01 
5.315437e-01 
5.126096e-01 
4.987712e-01 
4.903351e-01 
4.875000e-01 
4.903351e-01 
4.987712e-01 
5.126096e-01 
5.315437e-01 
5.551904e-01 
5.831228e-01 
6.149003e-01 
6.500919e-01 
6.882919e-01 
7.291293e-01 
7.722718e-01 
8.174263e-01 
1.197542e+00 
1.141932e+00 
1.086954e+00 
1.032693e+00 
9.792476e-01 
9.267348e-01 
8.752907e-01 
8.250762e-01 
7.762812e-01 
7.291293e-01 
6.838835e-01 
6.408515e-01 
6.003905e-01 
5.629097e-01 
5.288690e-01 
4.987712e-01 
4.731456e-01 
4.525192e-01 
4.373774e-01 
4.281172e-01 
4.250000e-01 
4.281172e-01 
4.373774e-01 
4.525192e-01 
4.731456e-01 
4.987712e-01 
5.288690e-01 
5.629097e-01 
6.003905e-01 
6.408515e-01 
6.838835e-01 
7.291293e-01 
7.762812e-01 
1.170732e+00 
1.113987e+00 
1.057788e+00 
1.002212e+00 
9.473475e-01 
8.933035e-01 
8.402073e-01 
7.882118e-01 
7.375000e-01 
6.882919e-01 
6.408515e-01 
5.954951e-01 
5.525997e-01 
5.126096e-01 
4.760409e-01 
4.434769e-01 
4.155536e-01 
3.929271e-01 
3.762215e-01 
3.659616e-01 
3.625000e-01 
3.659616e-01 
3.762215e-01 
3.929271e-01 
4.155536e-01 
4.434769e-01 
4.760409e-01 
5.126096e-01 
5.525997e-01 
5.954951e-01 
6.408515e-01 
6.882919e-01 
7.375000e-01 
1.146291e+00 
1.088471e+00 
1.031107e+00 
9.742684e-01 
9.180340e-01 
8.625000e-01 
8.077822e-01 
7.540211e-01 
7.013878e-01 
6.500919e-01 
6.003905e-01 
5.525997e-01 
5.071068e-01 
4.643841e-01 
4.250000e-01 
3.896238e-01 
3.590170e-01 
3.340002e-01 
3.153882e-01 
3.038911e-01 
3.000000e-01 
3.038911e-01 
3.153882e-01 
3.340002e-01 
3.590170e-01 
3.896238e-01 
4.250000e-01 
4.643841e-01 
5.071068e-01 
5.525997e-01 
6.003905e-01 
6.500919e-01 
7.013878e-01 
1.124351e+00 
1.065529e+00 
1.007075e+00 
9.490485e-01 
8.915156e-01 
8.345591e-01 
7.782797e-01 
7.228014e-01 
6.682777e-01 
6.149003e-01 
5.629097e-01 
5.126096e-01 
4.643841e-01 
4.187184e-01 
3.762215e-01 
3.376453e-01 
3.038911e-01 
2.759858e-01 
2.550069e-01 
2.419417e-01 
2.375000e-01 
2.419417e-01 
2.550069e-01 
2.759858e-01 
3.038911e-01 
3.376453e-01 
3.762215e-01 
4.187184e-01 
4.643841e-01 
5.126096e-01 
5.629097e-01 
6.149003e-01 
6.682777e-01 
1.105038e+00 
1.045304e+00 
9.858541e-01 
9.267348e-01 
8.680005e-01 
8.097184e-01 
7.519716e-01 
6.948638e-01 
6.385255e-01 
5.831228e-01 
5.288690e-01 
4.760409e-01 
4.250000e-01 
3.762215e-01 
3.303301e-01 
2.881406e-01 
2.506939e-01 
2.192627e-01 
1.952847e-01 
1.801727e-01 
1.750000e-01 
1.801727e-01 
1.952847e-01 
2.192627e-01 
2.506939e-01 
2.881406e-01 
3.303301e-01 
3.762215e-01 
4.250000e-01 
4.760409e-01 
5.288690e-01 
5.831228e-01 
6.385255e-01 
1.088471e+00 
1.027930e+00 
9.675964e-01 
9.075028e-01 
8.476909e-01 
7.882118e-01 
7.291293e-01 
6.705243e-01 
6.125000e-01 
5.551904e-01 
4.987712e-01 
4.434769e-01 
3.896238e-01 
3.376453e-01 
2.881406e-01 
2.419417e-01 
2.001953e-01 
1.644345e-01 
1.365728e-01 
1.186887e-01 
1.125000e-01 
1.186887e-01 
1.365728e-01 
1.644345e-01 
2.001953e-01 
2.419417e-01 
2.881406e-01 
3.376453e-01 
3.896238e-01 
4.434769e-01 
4.987712e-01 
5.551904e-01 
6.125000e-01 
1.074755e+00 
1.013530e+00 
9.524431e-01 
8.915156e-01 
8.307764e-01 
7.702609e-01 
7.100137e-01 
6.500919e-01 
5.905694e-01 
5.315437e-01 
4.731456e-01 
4.155536e-01 
3.590170e-01 
3.038911e-01 
2.506939e-01 
2.001953e-01 
1.535534e-01 
1.125000e-01 
7.950850e-02 
5.769410e-02 
5.000000e-02 
5.769410e-02 
7.950850e-02 
1.125000e-01 
1.535534e-01 
2.001953e-01 
2.506939e-01 
3.038911e-01 
3.590170e-01 
4.155536e-01 
4.731456e-01 
5.315437e-01 
5.905694e-01 
1.063984e+00 
1.002212e+00 
9.405180e-01 
8.789173e-01 
8.174263e-01 
7.560662e-01 
6.948638e-01 
6.338540e-01 
5.730823e-01 
5.126096e-01 
4.525192e-01 
3.929271e-01 
3.340002e-01 
2.759858e-01 
2.192627e-01 
1.644345e-01 
1.125000e-01 
6.516504e-02 
2.534695e-02 
-2.357646e-03 
-1.250000e-02 
-2.357646e-03 
2.534695e-02 
6.516504e-02 
1.125000e-01 
1.644345e-01 
2.192627e-01 
2.759858e-01 
3.340002e-01 
3.929271e-01 
4.525192e-01 
5.126096e-01 
5.730823e-01 
1.056234e+00 
9.940608e-01 
9.319231e-01 
8.698277e-01 
8.077822e-01 
7.457966e-01 
6.838835e-01 
6.220592e-01 
5.603453e-01 
4.987712e-01 
4.373774e-01 
3.762215e-01 
3.153882e-01 
2.550069e-01 
1.952847e-01 
1.365728e-01 
7.950850e-02 
2.534695e-02 
-2.322330e-02 
-6.024575e-02 
-7.500000e-02 
-6.024575e-02 
-2.322330e-02 
2.534695e-02 
7.950850e-02 
1.365728e-01 
1.952847e-01 
2.550069e-01 
3.153882e-01 
3.762215e-01 
4.373774e-01 
4.987712e-01 
5.603453e-01 
1.051562e+00 
9.891436e-01 
9.267348e-01 
8.643366e-01 
8.019512e-01 
7.395810e-01 
6.772293e-01 
6.149003e-01 
5.525997e-01 
4.903351e-01 
4.281172e-01 
3.659616e-01 
3.038911e-01 
2.419417e-01 
1.801727e-01 
1.186887e-01 
5.769410e-02 
-2.357646e-03 
-6.024575e-02 
-1.116117e-01 
-1.375000e-01 
-1.116117e-01 
-6.024575e-02 
-2.357646e-03 
5.769410e-02 
1.186887e-01 
1.801727e-01 
2.419417e-01 
3.038911e-01 
3.659616e-01 
4.281172e-01 
4.903351e-01 
5.525997e-01 
1.050000e+00 
9.875000e-01 
9.250000e-01 
8.625000e-01 
8.000000e-01 
7.375000e-01 
6.750000e-01 
6.125000e-01 
5.500000e-01 
4.875000e-01 
4.250000e-01 
3.625000e-01 
3.000000e-01 
2.375000e-01 
1.750000e-01 
1.125000e-01 
5.000000e-02 
-1.250000e-02 
-7.500000e-02 
-1.375000e-01 
-2.000000e-01 
-1.375000e-01 
-7.500000e-02 
-1.250000e-02 
5.000000e-02 
1.125000e-01 
1.750000e-01 
2.375000e-01 
3.000000e-01 
3.625000e-01 
4.250000e-01 
4.875000e-01 
5.500000e-01 
1.051562e+00 
9.891436e-01 
9.267348e-01 
8.643366e-01 
8.019512e-01 
7.395810e-01 
6.772293e-01 
6.149003e-01 
5.525997e-01 
4.903351e-01 
4.281172e-01 
3.659616e-01 
3.038911e-01 
2.419417e-01 
1.801727e-01 
1.186887e-01 
5.769410e-02 
-2.357646e-03 
-6.024575e-02 
-1.116117e-01 
-1.375000e-01 
-1.116117e-01 
-6.024575e-02 
-2.357646e-03 
5.769410e-02 
1.186887e-01 
1.801727e-01 
2.419417e-01 
3.038911e-01 
3.659616e-01 
4.281172e-01 
4.903351e-01 
5.525997e-01 
1.056234e+00 
9.940608e-01 
9.319231e-01 
8.698277e-01 
8.077822e-01 
7.457966e-01 
6.838835e-01 
6.220592e-01 
5.603453e-01 
4.987712e-01 
4.373774e-01 
3.762215e-01 
3.153882e-01 
2.550069e-01 
1.952847e-01 
1.365728e-01 
7.950850e-02 
2.534695e-02 
-2.322330e-02 
-6.024575e-02 
-7.500000e-02 
-6.024575e-02 
-2.322330e-02 
2.534695e-02 
7.950850e-02 
1.365728e-01 
1.952847e-01 
2.550069e-01 
3.153882e-01 
3.762215e-01 
4.373774e-01 
4.987712e-01 
5.603453e-01 
1.063984e+00 
1.002212e+00 
9.405180e-01 
8.789173e-01 
8.174263e-01 
7.560662e-01 
6.948638e-01 
6.338540e-01 
5.730823e-01 
5.126096e-01 
4.525192e-01 
3.929271e-01 
3.340002e-01 
2.759858e-01 
2.192627e-01 
1.644345e-01 
1.125000e-01 
6.516504e-02 
2.534695e-02 
-2.357646e-03 
-1.250000e-02 
-2.357646e-03 
2.534695e-02 
6.516504e-02 
1.125000e-01 
1.644345e-01 
2.192627e-01 
2.759858e-01 
3.340002e-01 
3.929271e-01 
4.525192e-01 
5.126096e-01 
5.730823e-01 
1.074755e+00 
1.013530e+00 
9.524431e-01 
8.915156e-01 
8.307764e-01 
7.702609e-01 
7.100137e-01 
6.500919e-01 
5.905694e-01 
5.315437e-01 
4.731456e-01 
4.155536e-01 
3.590170e-01 
3.038911e-01 
2.506939e-01 
2.001953e-01 
1.535534e-01 
1.125000e-01 
7.950850e-02 
5.769410e-02 
5.000000e-02 
5.769410e-02 
7.950850e-02 
1.125000e-01 
1.535534e-01 
2.001953e-01 
2.506939e-01 
3.038911e-01 
3.590170e-01 
4.155536e-01 
4.731456e-01 
5.315437e-01 
5.905694e-01 
1.088471e+00 
1.027930e+00 
9.675964e-01 
9.075028e-01 
8.476909e-01 
7.882118e-01 
7.291293e-01 
6.705243e-01 
6.125000e-01 
5.551904e-01 
4.987712e-01 
4.434769e-01 
3.896238e-01 
3.376453e-01 
2.881406e-01 
2.419417e-01 
2.001953e-01 
1.644345e-01 
1.365728e-01 
1.186887e-01 
1.125000e-01 
1.186887e-01 
1.365728e-01 
1.644345e-01 
2.001953e-01 
2.419417e-01 
2.881406e-01 
3.376453e-01 
3.896238e-01 
4.434769e-01 
4.987712e-01 
5.551904e-01 
6.125000e-01 
1.105038e+00 
1.045304e+00 
9.858541e-01 
9.267348e-01 
8.680005e-01 
8.097184e-01 
7.519716e-01 
6.948638e-01 
6.385255e-01 
5.831228e-01 
5.288690e-01 
4.760409e-01 
4.250000e-01 
3.762215e-01 
3.303301e-01 
2.881406e-01 
2.506939e-01 
2.192627e-01 
1.952847e-01 
1.801727e-01 
1.750000e-01 
1.801727e-01 
1.952847e-01 
2.192627e-01 
2.506939e-01 
2.881406e-01 
3.303301e-01 
3.762215e-01 
4.250000e-01 
4.760409e-01 
5.288690e-01 
5.831228e-01 
6.385255e-01 
1.124351e+00 
1.065529e+00 
1.007075e+00 
9.490485e-01 
8.915156e-01 
8.345591e-01 
7.782797e-01 
7.228014e-01 
6.682777e-01 
6.149003e-01 
5.629097e-01 
5.126096e-01 
4.643841e-01 
4.187184e-01 
3.762215e-01 
3.376453e-01 
3.038911e-01 
2.759858e-01 
2.550069e-01 
2.419417e-01 
2.375000e-01 
2.419417e-01 
2.550069e-01 
2.759858e-01 
3.038911e-01 
3.376453e-01 
3.762215e-01 
4.187184e-01 
4.643841e-01 
5.126096e-01 
5.629097e-01 
6.149003e-01 
6.682777e-01 
1.146291e+00 
1.088471e+00 
1.031107e+00 
9.742684e-01 
9.180340e-01 
8.625000e-01 
8.077822e-01 
7.540211e-01 
7.013878e-01 
6.500919e-01 
6.003905e-01 
5.525997e-01 
5.071068e-01 
4.643841e-01 
4.250000e-01 
3.896238e-01 
3.590170e-01 
3.340002e-01 
3.153882e-01 
3.038911e-01 
3.000000e-01 
3.038911e-01 
3.153882e-01 
3.340002e-01 
3.590170e-01 
3.896238e-01 
4.250000e-01 
4.643841e-01 
5.071068e-01 
5.525997e-01 
6.003905e-01 
6.500919e-01 
7.013878e-01 
1.170732e+00 
1.113987e+00 
1.057788e+00 
1.002212e+00 
9.473475e-01 
8.933035e-01 
8.402073e-01 
7.882118e-01 
7.375000e-01 
6.882919e-01 
6.408515e-01 
5.954951e-01 
5.525997e-01 
5.126096e-01 
4.760409e-01 
4.434769e-01 
4.155536e-01 
3.929271e-01 
3.762215e-01 
3.659616e-01 
3.625000e-01 
3.659616e-01 
3.762215e-01 
3.929271e-01 
4.155536e-01 
4.434769e-01 
4.760409e-01 
5.126096e-01 
5.525997e-01 
5.954951e-01 
6.408515e-01 
6.882919e-01 
7.375000e-01 
1.197542e+00 
1.141932e+00 
1.086954e+00 
1.032693e+00 
9.792476e-01 
9.267348e-01 
8.752907e-01 
8.250762e-01 
7.762812e-01 
7.291293e-01 
6.838835e-01 
6.408515e-01 
6.003905e-01 
5.629097e-01 
5.288690e-01 
4.987712e-01 
4.731456e-01 
4.525192e-01 
4.373774e-01 
4.281172e-01 
4.250000e-01 
4.281172e-01 
4.373774e-01 
4.525192e-01 
4.731456e-01 
4.987712e-01 
5.288690e-01 
5.629097e-01 
6.003905e-01 
6.408515e-01 
6.838835e-01 
7.291293e-01 
7.762812e-01 
1.226589e+00 
1.172156e+00 
1.118439e+00 
1.065529e+00 
1.013530e+00 
9.625672e-01 
9.127809e-01 
8.643366e-01 
8.174263e-01 
7.722718e-01 
7.291293e-01 
6.882919e-01 
6.500919e-01 
6.149003e-01 
5.831228e-01 
5.551904e-01 
5.315437e-01 
5.126096e-01 
4.987712e-01 
4.903351e-01 
4.875000e-01 
4.903351e-01 
4.987712e-01 
5.126096e-01 
5.315437e-01 
5.551904e-01 
5.831228e-01 
6.149003e-01 
6.500919e-01 
6.882919e-01 
7.291293e-01 
7.722718e-01 
8.174263e-01 
1.257738e+00 
1.204513e+00 
1.152082e+00 
1.100541e+00 
1.050000e+00 
1.000586e+00 
9.524431e-01 
9.057379e-01 
8.606602e-01 
8.174263e-01 
7.762812e-01 
7.375000e-01 
7.013878e-01 
6.682777e-01 
6.385255e-01 
6.125000e-01 
5.905694e-01 
5.730823e-01 
5.603453e-01 
5.525997e-01 
5.500000e-01 
5.525997e-01 
5.603453e-01 
5.730823e-01 
5.905694e-01 
6.125000e-01 
6.385255e-01 
6.682777e-01 
7.013878e-01 
7.375000e-01 
7.762812e-01 
8.174263e-01 
8.606602e-01 
1.290858e+00 
1.238858e+00 
1.187725e+00 
1.137558e+00 
1.088471e+00 
1.040590e+00 
9.940608e-01 
9.490485e-01 
9.057379e-01 
8.643366e-01 
8.250762e-01 
7.882118e-01 
7.540211e-01 
7.228014e-01 
6.948638e-01 
6.705243e-01 
6.500919e-01 
6.338540e-01 
6.220592e-01 
6.149003e-01 
6.125000e-01 
6.149003e-01 
6.220592e-01 
6.338540e-01 
6.500919e-01 
6.705243e-01 
6.948638e-01 
7.228014e-01 
7.540211e-01 
7.882118e-01 
8.250762e-01 
8.643366e-01 
9.057379e-01 
1.325819e+00 
1.275053e+00 
1.225219e+00 
1.176420e+00 
1.128768e+00 
1.082393e+00 
1.037437e+00 
9.940608e-01 
9.524431e-01 
9.127809e-01 
8.752907e-01 
8.402073e-01 
8.077822e-01 
7.782797e-01 
7.519716e-01 
7.291293e-01 
7.100137e-01 
6.948638e-01 
6.838835e-01 
6.772293e-01 
6.750000e-01 
6.772293e-01 
6.838835e-01 
6.948638e-01 
7.100137e-01 
7.291293e-01 
7.519716e-01 
7.782797e-01 
8.077822e-01 
8.402073e-01 
8.752907e-01 
9.127809e-01 
9.524431e-01 
1.362500e+00 
1.312965e+00 
1.264422e+00 
1.216973e+00 
1.170732e+00 
1.125825e+00 
1.082393e+00 
1.040590e+00 
1.000586e+00 
9.625672e-01 
9.267348e-01 
8.933035e-01 
8.625000e-01 
8.345591e-01 
8.097184e-01 
7.882118e-01 
7.702609e-01 
7.560662e-01 
7.457966e-01 
7.395810e-01 
7.375000e-01 
7.395810e-01 
7.457966e-01 
7.560662e-01 
7.702609e-01 
7.882118e-01 
8.097184e-01 
8.345591e-01 
8.625000e-01 
8.933035e-01 
9.267348e-01 
9.625672e-01 
1.000586e+00 
1.400781e+00 
1.352468e+00 
1.305199e+00 
1.259077e+00 
1.214214e+00 
1.170732e+00 
1.128768e+00 
1.088471e+00 
1.050000e+00 
1.013530e+00 
9.792476e-01 
9.473475e-01 
9.180340e-01 
8.915156e-01 
8.680005e-01 
8.476909e-01 
8.307764e-01 
8.174263e-01 
8.077822e-01 
8.019512e-01 
8.000000e-01 
8.019512e-01 
8.077822e-01 
8.174263e-01 
8.307764e-01 
8.476909e-01 
8.680005e-01 
8.915156e-01 
9.180340e-01 
9.473475e-01 
9.792476e-01 
1.013530e+00 
1.050000e+00 
SCALARS numer_sol=0 double 1 
LOOKUP_TABLE default 
1.401712e+00 
1.354052e+00 
1.307411e+00 
1.261862e+00 
1.217528e+00 
1.174482e+00 
1.132931e+00 
1.092989e+00 
1.054832e+00 
1.018625e+00 
9.845894e-01 
9.529032e-01 
9.237850e-01 
8.974451e-01 
8.740808e-01 
8.539004e-01 
8.370763e-01 
8.237900e-01 
8.141666e-01 
8.083225e-01 
8.063024e-01 
8.081393e-01 
8.137971e-01 
8.231925e-01 
8.362510e-01 
8.527245e-01 
8.725407e-01 
8.954100e-01 
9.211767e-01 
9.495558e-01 
9.804767e-01 
1.013517e+00 
1.048638e+00 
1.363970e+00 
1.315145e+00 
1.267199e+00 
1.220237e+00 
1.174479e+00 
1.129983e+00 
1.086913e+00 
1.045424e+00 
1.005705e+00 
9.679279e-01 
9.323177e-01 
8.991004e-01 
8.684889e-01 
8.407307e-01 
8.160488e-01 
7.946850e-01 
7.768434e-01 
7.627647e-01 
7.525522e-01 
7.463599e-01 
7.442458e-01 
7.462397e-01 
7.523116e-01 
7.623703e-01 
7.762958e-01 
7.938584e-01 
8.149470e-01 
8.391851e-01 
8.664596e-01 
8.964241e-01 
9.289037e-01 
9.635925e-01 
1.000314e+00 
1.327705e+00 
1.277595e+00 
1.228346e+00 
1.180038e+00 
1.132825e+00 
1.086821e+00 
1.042188e+00 
9.990924e-01 
9.577310e-01 
9.182946e-01 
8.810107e-01 
8.461286e-01 
8.138895e-01 
7.845687e-01 
7.584253e-01 
7.357377e-01 
7.167510e-01 
7.017476e-01 
6.908651e-01 
6.842748e-01 
6.820541e-01 
6.842397e-01 
6.907938e-01 
7.016021e-01 
7.165076e-01 
7.352992e-01 
7.577455e-01 
7.835206e-01 
8.124273e-01 
8.440801e-01 
8.782674e-01 
9.146951e-01 
9.531093e-01 
1.293173e+00 
1.241765e+00 
1.191159e+00 
1.141442e+00 
1.092736e+00 
1.045182e+00 
9.989435e-01 
9.541836e-01 
9.111030e-01 
8.699094e-01 
8.308415e-01 
7.941682e-01 
7.601584e-01 
7.291221e-01 
7.013593e-01 
6.771895e-01 
6.569090e-01 
6.408470e-01 
6.291877e-01 
6.221321e-01 
6.197829e-01 
6.221807e-01 
6.292814e-01 
6.409507e-01 
6.569793e-01 
6.771281e-01 
7.010872e-01 
7.285569e-01 
7.592039e-01 
7.926908e-01 
8.287269e-01 
8.669719e-01 
9.071997e-01 
1.260333e+00 
1.207664e+00 
1.155719e+00 
1.104584e+00 
1.054390e+00 
1.005261e+00 
9.573694e-01 
9.108918e-01 
8.660210e-01 
8.229725e-01 
7.820057e-01 
7.434083e-01 
7.074788e-01 
6.745561e-01 
6.449928e-01 
6.191555e-01 
5.974042e-01 
5.801272e-01 
5.675671e-01 
5.599647e-01 
5.574590e-01 
5.600956e-01 
5.678222e-01 
5.804707e-01 
5.977822e-01 
6.194657e-01 
6.451437e-01 
6.744605e-01 
7.070277e-01 
7.424965e-01 
7.804980e-01 
8.207172e-01 
8.628385e-01 
1.229427e+00 
1.175514e+00 
1.122224e+00 
1.069657e+00 
1.017959e+00 
9.672493e-01 
9.176823e-01 
8.694358e-01 
8.227068e-01 
7.777187e-01 
7.347435e-01 
6.940872e-01 
6.560759e-01 
6.210811e-01 
5.895088e-01 
5.617885e-01 
5.383520e-01 
5.196676e-01 
5.060515e-01 
4.978046e-01 
4.951079e-01 
4.980206e-01 
5.064732e-01 
5.202513e-01 
5.390332e-01 
5.624595e-01 
5.900742e-01 
6.214347e-01 
6.561130e-01 
6.936965e-01 
7.338003e-01 
7.760683e-01 
8.201541e-01 
1.200525e+00 
1.145382e+00 
1.090799e+00 
1.036848e+00 
9.836551e-01 
9.313584e-01 
8.801033e-01 
8.300582e-01 
7.814224e-01 
7.344210e-01 
6.893356e-01 
6.464802e-01 
6.062085e-01 
5.689328e-01 
5.351135e-01 
5.052574e-01 
4.798802e-01 
4.595483e-01 
4.446820e-01 
4.356665e-01 
4.327395e-01 
4.359808e-01 
4.452943e-01 
4.604012e-01 
4.808887e-01 
5.063025e-01 
5.360983e-01 
5.697385e-01 
6.067268e-01 
6.465974e-01 
6.889307e-01 
7.333506e-01 
7.794924e-01 
1.173819e+00 
1.117486e+00 
1.061627e+00 
1.006321e+00 
9.516768e-01 
8.978171e-01 
8.448809e-01 
7.930313e-01 
7.424578e-01 
6.933875e-01 
6.460931e-01 
6.009005e-01 
5.581972e-01 
5.184366e-01 
4.821353e-01 
4.498617e-01 
4.222390e-01 
3.999502e-01 
3.835652e-01 
3.735977e-01 
3.703746e-01 
3.740075e-01 
3.843590e-01 
4.010539e-01 
4.235469e-01 
4.512478e-01 
4.835057e-01 
5.196825e-01 
5.591891e-01 
6.015082e-01 
6.461867e-01 
6.928336e-01 
7.410798e-01 
1.149421e+00 
1.091975e+00 
1.034900e+00 
9.782870e-01 
9.222382e-01 
8.668585e-01 
8.122786e-01 
7.586452e-01 
7.061311e-01 
6.549497e-01 
6.053771e-01 
5.577611e-01 
5.125159e-01 
4.701273e-01 
4.311409e-01 
3.961871e-01 
3.659711e-01 
3.413263e-01 
3.230291e-01 
3.117964e-01 
3.081166e-01 
3.121723e-01 
3.237726e-01 
3.423869e-01 
3.672665e-01 
3.976238e-01 
4.326710e-01 
4.716566e-01 
5.138943e-01 
5.588139e-01 
6.059435e-01 
6.548816e-01 
7.052544e-01 
1.127452e+00 
1.068966e+00 
1.010772e+00 
9.529418e-01 
8.955635e-01 
8.387351e-01 
7.825700e-01 
7.271954e-01 
6.727657e-01 
6.194828e-01 
5.676390e-01 
5.176042e-01 
4.697939e-01 
4.246874e-01 
3.828472e-01 
3.449614e-01 
3.118324e-01 
2.844516e-01 
2.638342e-01 
2.509311e-01 
2.464761e-01 
2.508303e-01 
2.638104e-01 
2.846955e-01 
3.124188e-01 
3.458761e-01 
3.840758e-01 
4.261387e-01 
4.713013e-01 
5.189486e-01 
5.685937e-01 