# vtk DataFile Version 2.0 
Quadtree Mesh 
ASCII 
DATASET UNSTRUCTURED_GRID 
POINTS 289 double 
-1.000000e+00 -1.000000e+00 0.000000e+00
-8.750000e-01 -1.000000e+00 0.000000e+00
-7.500000e-01 -1.000000e+00 0.000000e+00
-6.250000e-01 -1.000000e+00 0.000000e+00
-5.000000e-01 -1.000000e+00 0.000000e+00
-3.750000e-01 -1.000000e+00 0.000000e+00
-2.500000e-01 -1.000000e+00 0.000000e+00
-1.250000e-01 -1.000000e+00 0.000000e+00
0.000000e+00 -1.000000e+00 0.000000e+00
1.250000e-01 -1.000000e+00 0.000000e+00
2.500000e-01 -1.000000e+00 0.000000e+00
3.750000e-01 -1.000000e+00 0.000000e+00
5.000000e-01 -1.000000e+00 0.000000e+00
6.250000e-01 -1.000000e+00 0.000000e+00
7.500000e-01 -1.000000e+00 0.000000e+00
8.750000e-01 -1.000000e+00 0.000000e+00
1.000000e+00 -1.000000e+00 0.000000e+00
-1.000000e+00 -8.750000e-01 0.000000e+00
-8.750000e-01 -8.750000e-01 0.000000e+00
-7.500000e-01 -8.750000e-01 0.000000e+00
-6.250000e-01 -8.750000e-01 0.000000e+00
-5.000000e-01 -8.750000e-01 0.000000e+00
-3.750000e-01 -8.750000e-01 0.000000e+00
-2.500000e-01 -8.750000e-01 0.000000e+00
-1.250000e-01 -8.750000e-01 0.000000e+00
0.000000e+00 -8.750000e-01 0.000000e+00
1.250000e-01 -8.750000e-01 0.000000e+00
2.500000e-01 -8.750000e-01 0.000000e+00
3.750000e-01 -8.750000e-01 0.000000e+00
5.000000e-01 -8.750000e-01 0.000000e+00
6.250000e-01 -8.750000e-01 0.000000e+00
7.500000e-01 -8.750000e-01 0.000000e+00
8.750000e-01 -8.750000e-01 0.000000e+00
1.000000e+00 -8.750000e-01 0.000000e+00
-1.000000e+00 -7.500000e-01 0.000000e+00
-8.750000e-01 -7.500000e-01 0.000000e+00
-7.500000e-01 -7.500000e-01 0.000000e+00
-6.250000e-01 -7.500000e-01 0.000000e+00
-5.000000e-01 -7.500000e-01 0.000000e+00
-3.750000e-01 -7.500000e-01 0.000000e+00
-2.500000e-01 -7.500000e-01 0.000000e+00
-1.250000e-01 -7.500000e-01 0.000000e+00
0.000000e+00 -7.500000e-01 0.000000e+00
1.250000e-01 -7.500000e-01 0.000000e+00
2.500000e-01 -7.500000e-01 0.000000e+00
3.750000e-01 -7.500000e-01 0.000000e+00
5.000000e-01 -7.500000e-01 0.000000e+00
6.250000e-01 -7.500000e-01 0.000000e+00
7.500000e-01 -7.500000e-01 0.000000e+00
8.750000e-01 -7.500000e-01 0.000000e+00
1.000000e+00 -7.500000e-01 0.000000e+00
-1.000000e+00 -6.250000e-01 0.000000e+00
-8.750000e-01 -6.250000e-01 0.000000e+00
-7.500000e-01 -6.250000e-01 0.000000e+00
-6.250000e-01 -6.250000e-01 0.000000e+00
-5.000000e-01 -6.250000e-01 0.000000e+00
-3.750000e-01 -6.250000e-01 0.000000e+00
-2.500000e-01 -6.250000e-01 0.000000e+00
-1.250000e-01 -6.250000e-01 0.000000e+00
0.000000e+00 -6.250000e-01 0.000000e+00
1.250000e-01 -6.250000e-01 0.000000e+00
2.500000e-01 -6.250000e-01 0.000000e+00
3.750000e-01 -6.250000e-01 0.000000e+00
5.000000e-01 -6.250000e-01 0.000000e+00
6.250000e-01 -6.250000e-01 0.000000e+00
7.500000e-01 -6.250000e-01 0.000000e+00
8.750000e-01 -6.250000e-01 0.000000e+00
1.000000e+00 -6.250000e-01 0.000000e+00
-1.000000e+00 -5.000000e-01 0.000000e+00
-8.750000e-01 -5.000000e-01 0.000000e+00
-7.500000e-01 -5.000000e-01 0.000000e+00
-6.250000e-01 -5.000000e-01 0.000000e+00
-5.000000e-01 -5.000000e-01 0.000000e+00
-3.750000e-01 -5.000000e-01 0.000000e+00
-2.500000e-01 -5.000000e-01 0.000000e+00
-1.250000e-01 -5.000000e-01 0.000000e+00
0.000000e+00 -5.000000e-01 0.000000e+00
1.250000e-01 -5.000000e-01 0.000000e+00
2.500000e-01 -5.000000e-01 0.000000e+00
3.750000e-01 -5.000000e-01 0.000000e+00
5.000000e-01 -5.000000e-01 0.000000e+00
6.250000e-01 -5.000000e-01 0.000000e+00
7.500000e-01 -5.000000e-01 0.000000e+00
8.750000e-01 -5.000000e-01 0.000000e+00
1.000000e+00 -5.000000e-01 0.000000e+00
-1.000000e+00 -3.750000e-01 0.000000e+00
-8.750000e-01 -3.750000e-01 0.000000e+00
-7.500000e-01 -3.750000e-01 0.000000e+00
-6.250000e-01 -3.750000e-01 0.000000e+00
-5.000000e-01 -3.750000e-01 0.000000e+00
-3.750000e-01 -3.750000e-01 0.000000e+00
-2.500000e-01 -3.750000e-01 0.000000e+00
-1.250000e-01 -3.750000e-01 0.000000e+00
0.000000e+00 -3.750000e-01 0.000000e+00
1.250000e-01 -3.750000e-01 0.000000e+00
2.500000e-01 -3.750000e-01 0.000000e+00
3.750000e-01 -3.750000e-01 0.000000e+00
5.000000e-01 -3.750000e-01 0.000000e+00
6.250000e-01 -3.750000e-01 0.000000e+00
7.500000e-01 -3.750000e-01 0.000000e+00
8.750000e-01 -3.750000e-01 0.000000e+00
1.000000e+00 -3.750000e-01 0.000000e+00
-1.000000e+00 -2.500000e-01 0.000000e+00
-8.750000e-01 -2.500000e-01 0.000000e+00
-7.500000e-01 -2.500000e-01 0.000000e+00
-6.250000e-01 -2.500000e-01 0.000000e+00
-5.000000e-01 -2.500000e-01 0.000000e+00
-3.750000e-01 -2.500000e-01 0.000000e+00
-2.500000e-01 -2.500000e-01 0.000000e+00
-1.250000e-01 -2.500000e-01 0.000000e+00
0.000000e+00 -2.500000e-01 0.000000e+00
1.250000e-01 -2.500000e-01 0.000000e+00
2.500000e-01 -2.500000e-01 0.000000e+00
3.750000e-01 -2.500000e-01 0.000000e+00
5.000000e-01 -2.500000e-01 0.000000e+00
6.250000e-01 -2.500000e-01 0.000000e+00
7.500000e-01 -2.500000e-01 0.000000e+00
8.750000e-01 -2.500000e-01 0.000000e+00
1.000000e+00 -2.500000e-01 0.000000e+00
-1.000000e+00 -1.250000e-01 0.000000e+00
-8.750000e-01 -1.250000e-01 0.000000e+00
-7.500000e-01 -1.250000e-01 0.000000e+00
-6.250000e-01 -1.250000e-01 0.000000e+00
-5.000000e-01 -1.250000e-01 0.000000e+00
-3.750000e-01 -1.250000e-01 0.000000e+00
-2.500000e-01 -1.250000e-01 0.000000e+00
-1.250000e-01 -1.250000e-01 0.000000e+00
0.000000e+00 -1.250000e-01 0.000000e+00
1.250000e-01 -1.250000e-01 0.000000e+00
2.500000e-01 -1.250000e-01 0.000000e+00
3.750000e-01 -1.250000e-01 0.000000e+00
5.000000e-01 -1.250000e-01 0.000000e+00
6.250000e-01 -1.250000e-01 0.000000e+00
7.500000e-01 -1.250000e-01 0.000000e+00
8.750000e-01 -1.250000e-01 0.000000e+00
1.000000e+00 -1.250000e-01 0.000000e+00
-1.000000e+00 0.000000e+00 0.000000e+00
-8.750000e-01 0.000000e+00 0.000000e+00
-7.500000e-01 0.000000e+00 0.000000e+00
-6.250000e-01 0.000000e+00 0.000000e+00
-5.000000e-01 0.000000e+00 0.000000e+00
-3.750000e-01 0.000000e+00 0.000000e+00
-2.500000e-01 0.000000e+00 0.000000e+00
-1.250000e-01 0.000000e+00 0.000000e+00
0.000000e+00 0.000000e+00 0.000000e+00
1.250000e-01 0.000000e+00 0.000000e+00
2.500000e-01 0.000000e+00 0.000000e+00
3.750000e-01 0.000000e+00 0.000000e+00
5.000000e-01 0.000000e+00 0.000000e+00
6.250000e-01 0.000000e+00 0.000000e+00
7.500000e-01 0.000000e+00 0.000000e+00
8.750000e-01 0.000000e+00 0.000000e+00
1.000000e+00 0.000000e+00 0.000000e+00
-1.000000e+00 1.250000e-01 0.000000e+00
-8.750000e-01 1.250000e-01 0.000000e+00
-7.500000e-01 1.250000e-01 0.000000e+00
-6.250000e-01 1.250000e-01 0.000000e+00
-5.000000e-01 1.250000e-01 0.000000e+00
-3.750000e-01 1.250000e-01 0.000000e+00
-2.500000e-01 1.250000e-01 0.000000e+00
-1.250000e-01 1.250000e-01 0.000000e+00
0.000000e+00 1.250000e-01 0.000000e+00
1.250000e-01 1.250000e-01 0.000000e+00
2.500000e-01 1.250000e-01 0.000000e+00
3.750000e-01 1.250000e-01 0.000000e+00
5.000000e-01 1.250000e-01 0.000000e+00
6.250000e-01 1.250000e-01 0.000000e+00
7.500000e-01 1.250000e-01 0.000000e+00
8.750000e-01 1.250000e-01 0.000000e+00
1.000000e+00 1.250000e-01 0.000000e+00
-1.000000e+00 2.500000e-01 0.000000e+00
-8.750000e-01 2.500000e-01 0.000000e+00
-7.500000e-01 2.500000e-01 0.000000e+00
-6.250000e-01 2.500000e-01 0.000000e+00
-5.000000e-01 2.500000e-01 0.000000e+00
-3.750000e-01 2.500000e-01 0.000000e+00
-2.500000e-01 2.500000e-01 0.000000e+00
-1.250000e-01 2.500000e-01 0.000000e+00
0.000000e+00 2.500000e-01 0.000000e+00
1.250000e-01 2.500000e-01 0.000000e+00
2.500000e-01 2.500000e-01 0.000000e+00
3.750000e-01 2.500000e-01 0.000000e+00
5.000000e-01 2.500000e-01 0.000000e+00
6.250000e-01 2.500000e-01 0.000000e+00
7.500000e-01 2.500000e-01 0.000000e+00
8.750000e-01 2.500000e-01 0.000000e+00
1.000000e+00 2.500000e-01 0.000000e+00
-1.000000e+00 3.750000e-01 0.000000e+00
-8.750000e-01 3.750000e-01 0.000000e+00
-7.500000e-01 3.750000e-01 0.000000e+00
-6.250000e-01 3.750000e-01 0.000000e+00
-5.000000e-01 3.750000e-01 0.000000e+00
-3.750000e-01 3.750000e-01 0.000000e+00
-2.500000e-01 3.750000e-01 0.000000e+00
-1.250000e-01 3.750000e-01 0.000000e+00
0.000000e+00 3.750000e-01 0.000000e+00
1.250000e-01 3.750000e-01 0.000000e+00
2.500000e-01 3.750000e-01 0.000000e+00
3.750000e-01 3.750000e-01 0.000000e+00
5.000000e-01 3.750000e-01 0.000000e+00
6.250000e-01 3.750000e-01 0.000000e+00
7.500000e-01 3.750000e-01 0.000000e+00
8.750000e-01 3.750000e-01 0.000000e+00
1.000000e+00 3.750000e-01 0.000000e+00
-1.000000e+00 5.000000e-01 0.000000e+00
-8.750000e-01 5.000000e-01 0.000000e+00
-7.500000e-01 5.000000e-01 0.000000e+00
-6.250000e-01 5.000000e-01 0.000000e+00
-5.000000e-01 5.000000e-01 0.000000e+00
-3.750000e-01 5.000000e-01 0.000000e+00
-2.500000e-01 5.000000e-01 0.000000e+00
-1.250000e-01 5.000000e-01 0.000000e+00
0.000000e+00 5.000000e-01 0.000000e+00
1.250000e-01 5.000000e-01 0.000000e+00
2.500000e-01 5.000000e-01 0.000000e+00
3.750000e-01 5.000000e-01 0.000000e+00
5.000000e-01 5.000000e-01 0.000000e+00
6.250000e-01 5.000000e-01 0.000000e+00
7.500000e-01 5.000000e-01 0.000000e+00
8.750000e-01 5.000000e-01 0.000000e+00
1.000000e+00 5.000000e-01 0.000000e+00
-1.000000e+00 6.250000e-01 0.000000e+00
-8.750000e-01 6.250000e-01 0.000000e+00
-7.500000e-01 6.250000e-01 0.000000e+00
-6.250000e-01 6.250000e-01 0.000000e+00
-5.000000e-01 6.250000e-01 0.000000e+00
-3.750000e-01 6.250000e-01 0.000000e+00
-2.500000e-01 6.250000e-01 0.000000e+00
-1.250000e-01 6.250000e-01 0.000000e+00
0.000000e+00 6.250000e-01 0.000000e+00
1.250000e-01 6.250000e-01 0.000000e+00
2.500000e-01 6.250000e-01 0.000000e+00
3.750000e-01 6.250000e-01 0.000000e+00
5.000000e-01 6.250000e-01 0.000000e+00
6.250000e-01 6.250000e-01 0.000000e+00
7.500000e-01 6.250000e-01 0.000000e+00
8.750000e-01 6.250000e-01 0.000000e+00
1.000000e+00 6.250000e-01 0.000000e+00
-1.000000e+00 7.500000e-01 0.000000e+00
-8.750000e-01 7.500000e-01 0.000000e+00
-7.500000e-01 7.500000e-01 0.000000e+00
-6.250000e-01 7.500000e-01 0.000000e+00
-5.000000e-01 7.500000e-01 0.000000e+00
-3.750000e-01 7.500000e-01 0.000000e+00
-2.500000e-01 7.500000e-01 0.000000e+00
-1.250000e-01 7.500000e-01 0.000000e+00
0.000000e+00 7.500000e-01 0.000000e+00
1.250000e-01 7.500000e-01 0.000000e+00
2.500000e-01 7.500000e-01 0.000000e+00
3.750000e-01 7.500000e-01 0.000000e+00
5.000000e-01 7.500000e-01 0.000000e+00
6.250000e-01 7.500000e-01 0.000000e+00
7.500000e-01 7.500000e-01 0.000000e+00
8.750000e-01 7.500000e-01 0.000000e+00
1.000000e+00 7.500000e-01 0.000000e+00
-1.000000e+00 8.750000e-01 0.000000e+00
-8.750000e-01 8.750000e-01 0.000000e+00
-7.500000e-01 8.750000e-01 0.000000e+00
-6.250000e-01 8.750000e-01 0.000000e+00
-5.000000e-01 8.750000e-01 0.000000e+00
-3.750000e-01 8.750000e-01 0.000000e+00
-2.500000e-01 8.750000e-01 0.000000e+00
-1.250000e-01 8.750000e-01 0.000000e+00
0.000000e+00 8.750000e-01 0.000000e+00
1.250000e-01 8.750000e-01 0.000000e+00
2.500000e-01 8.750000e-01 0.000000e+00
3.750000e-01 8.750000e-01 0.000000e+00
5.000000e-01 8.750000e-01 0.000000e+00
6.250000e-01 8.750000e-01 0.000000e+00
7.500000e-01 8.750000e-01 0.000000e+00
8.750000e-01 8.750000e-01 0.000000e+00
1.000000e+00 8.750000e-01 0.000000e+00
-1.000000e+00 1.000000e+00 0.000000e+00
-8.750000e-01 1.000000e+00 0.000000e+00
-7.500000e-01 1.000000e+00 0.000000e+00
-6.250000e-01 1.000000e+00 0.000000e+00
-5.000000e-01 1.000000e+00 0.000000e+00
-3.750000e-01 1.000000e+00 0.000000e+00
-2.500000e-01 1.000000e+00 0.000000e+00
-1.250000e-01 1.000000e+00 0.000000e+00
0.000000e+00 1.000000e+00 0.000000e+00
1.250000e-01 1.000000e+00 0.000000e+00
2.500000e-01 1.000000e+00 0.000000e+00
3.750000e-01 1.000000e+00 0.000000e+00
5.000000e-01 1.000000e+00 0.000000e+00
6.250000e-01 1.000000e+00 0.000000e+00
7.500000e-01 1.000000e+00 0.000000e+00
8.750000e-01 1.000000e+00 0.000000e+00
1.000000e+00 1.000000e+00 0.000000e+00
CELLS 256 1280 
4 0 1 18 17
4 17 18 35 34
4 34 35 52 51
4 51 52 69 68
4 68 69 86 85
4 85 86 103 102
4 102 103 120 119
4 119 120 137 136
4 136 137 154 153
4 153 154 171 170
4 170 171 188 187
4 187 188 205 204
4 204 205 222 221
4 221 222 239 238
4 238 239 256 255
4 255 256 273 272
4 1 2 19 18
4 18 19 36 35
4 35 36 53 52
4 52 53 70 69
4 69 70 87 86
4 86 87 104 103
4 103 104 121 120
4 120 121 138 137
4 137 138 155 154
4 154 155 172 171
4 171 172 189 188
4 188 189 206 205
4 205 206 223 222
4 222 223 240 239
4 239 240 257 256
4 256 257 274 273
4 2 3 20 19
4 19 20 37 36
4 36 37 54 53
4 53 54 71 70
4 70 71 88 87
4 87 88 105 104
4 104 105 122 121
4 121 122 139 138
4 138 139 156 155
4 155 156 173 172
4 172 173 190 189
4 189 190 207 206
4 206 207 224 223
4 223 224 241 240
4 240 241 258 257
4 257 258 275 274
4 3 4 21 20
4 20 21 38 37
4 37 38 55 54
4 54 55 72 71
4 71 72 89 88
4 88 89 106 105
4 105 106 123 122
4 122 123 140 139
4 139 140 157 156
4 156 157 174 173
4 173 174 191 190
4 190 191 208 207
4 207 208 225 224
4 224 225 242 241
4 241 242 259 258
4 258 259 276 275
4 4 5 22 21
4 21 22 39 38
4 38 39 56 55
4 55 56 73 72
4 72 73 90 89
4 89 90 107 106
4 106 107 124 123
4 123 124 141 140
4 140 141 158 157
4 157 158 175 174
4 174 175 192 191
4 191 192 209 208
4 208 209 226 225
4 225 226 243 242
4 242 243 260 259
4 259 260 277 276
4 5 6 23 22
4 22 23 40 39
4 39 40 57 56
4 56 57 74 73
4 73 74 91 90
4 90 91 108 107
4 107 108 125 124
4 124 125 142 141
4 141 142 159 158
4 158 159 176 175
4 175 176 193 192
4 192 193 210 209
4 209 210 227 226
4 226 227 244 243
4 243 244 261 260
4 260 261 278 277
4 6 7 24 23
4 23 24 41 40
4 40 41 58 57
4 57 58 75 74
4 74 75 92 91
4 91 92 109 108
4 108 109 126 125
4 125 126 143 142
4 142 143 160 159
4 159 160 177 176
4 176 177 194 193
4 193 194 211 210
4 210 211 228 227
4 227 228 245 244
4 244 245 262 261
4 261 262 279 278
4 7 8 25 24
4 24 25 42 41
4 41 42 59 58
4 58 59 76 75
4 75 76 93 92
4 92 93 110 109
4 109 110 127 126
4 126 127 144 143
4 143 144 161 160
4 160 161 178 177
4 177 178 195 194
4 194 195 212 211
4 211 212 229 228
4 228 229 246 245
4 245 246 263 262
4 262 263 280 279
4 8 9 26 25
4 25 26 43 42
4 42 43 60 59
4 59 60 77 76
4 76 77 94 93
4 93 94 111 110
4 110 111 128 127
4 127 128 145 144
4 144 145 162 161
4 161 162 179 178
4 178 179 196 195
4 195 196 213 212
4 212 213 230 229
4 229 230 247 246
4 246 247 264 263
4 263 264 281 280
4 9 10 27 26
4 26 27 44 43
4 43 44 61 60
4 60 61 78 77
4 77 78 95 94
4 94 95 112 111
4 111 112 129 128
4 128 129 146 145
4 145 146 163 162
4 162 163 180 179
4 179 180 197 196
4 196 197 214 213
4 213 214 231 230
4 230 231 248 247
4 247 248 265 264
4 264 265 282 281
4 10 11 28 27
4 27 28 45 44
4 44 45 62 61
4 61 62 79 78
4 78 79 96 95
4 95 96 113 112
4 112 113 130 129
4 129 130 147 146
4 146 147 164 163
4 163 164 181 180
4 180 181 198 197
4 197 198 215 214
4 214 215 232 231
4 231 232 249 248
4 248 249 266 265
4 265 266 283 282
4 11 12 29 28
4 28 29 46 45
4 45 46 63 62
4 62 63 80 79
4 79 80 97 96
4 96 97 114 113
4 113 114 131 130
4 130 131 148 147
4 147 148 165 164
4 164 165 182 181
4 181 182 199 198
4 198 199 216 215
4 215 216 233 232
4 232 233 250 249
4 249 250 267 266
4 266 267 284 283
4 12 13 30 29
4 29 30 47 46
4 46 47 64 63
4 63 64 81 80
4 80 81 98 97
4 97 98 115 114
4 114 115 132 131
4 131 132 149 148
4 148 149 166 165
4 165 166 183 182
4 182 183 200 199
4 199 200 217 216
4 216 217 234 233
4 233 234 251 250
4 250 251 268 267
4 267 268 285 284
4 13 14 31 30
4 30 31 48 47
4 47 48 65 64
4 64 65 82 81
4 81 82 99 98
4 98 99 116 115
4 115 116 133 132
4 132 133 150 149
4 149 150 167 166
4 166 167 184 183
4 183 184 201 200
4 200 201 218 217
4 217 218 235 234
4 234 235 252 251
4 251 252 269 268
4 268 269 286 285
4 14 15 32 31
4 31 32 49 48
4 48 49 66 65
4 65 66 83 82
4 82 83 100 99
4 99 100 117 116
4 116 117 134 133
4 133 134 151 150
4 150 151 168 167
4 167 168 185 184
4 184 185 202 201
4 201 202 219 218
4 218 219 236 235
4 235 236 253 252
4 252 253 270 269
4 269 270 287 286
4 15 16 33 32
4 32 33 50 49
4 49 50 67 66
4 66 67 84 83
4 83 84 101 100
4 100 101 118 117
4 117 118 135 134
4 134 135 152 151
4 151 152 169 168
4 168 169 186 185
4 185 186 203 202
4 202 203 220 219
4 219 220 237 236
4 236 237 254 253
4 253 254 271 270
4 270 271 288 287
CELL_TYPES 256 
9 
9 
9 
9 
9 
9 
9 
9 
9 
9 
9 
9 
9 
9 
9 
9 
9 
9 
9 
9 
9 
9 
9 
9 
9 
9 
9 
9 
9 
9 
9 
9 
9 
9 
9 
9 
9 
9 
9 
9 
9 
9 
9 
9 
9 
9 
9 
9 
9 
9 
9 
9 
9 
9 
9 
9 
9 
9 
9 
9 
9 
9 
9 
9 
9 
9 
9 
9 
9 
9 
9 
9 
9 
9 
9 
9 
9 
9 
9 
9 
9 
9 
9 
9 
9 
9 
9 
9 
9 
9 
9 
9 
9 
9 
9 
9 
9 
9 
9 
9 
9 
9 
9 
9 
9 
9 
9 
9 
9 
9 
9 
9 
9 
9 
9 
9 
9 
9 
9 
9 
9 
9 
9 
9 
9 
9 
9 
9 
9 
9 
9 
9 
9 
9 
9 
9 
9 
9 
9 
9 
9 
9 
9 
9 
9 
9 
9 
9 
9 
9 
9 
9 
9 
9 
9 
9 
9 
9 
9 
9 
9 
9 
9 
9 
9 
9 
9 
9 
9 
9 
9 
9 
9 
9 
9 
9 
9 
9 
9 
9 
9 
9 
9 
9 
9 
9 
9 
9 
9 
9 
9 
9 
9 
9 
9 
9 
9 
9 
9 
9 
9 
9 
9 
9 
9 
9 
9 
9 
9 
9 
9 
9 
9 
9 
9 
9 
9 
9 
9 
9 
9 
9 
9 
9 
9 
9 
9 
9 
9 
9 
9 
9 
9 
9 
9 
9 
9 
9 
9 
9 
9 
9 
9 
9 
9 
9 
9 
9 
9 
9 
9 
9 
9 
9 
9 
9 
POINT_DATA 289 
SCALARS iniData double 1 
LOOKUP_TABLE default 
1.400781e+00 
1.305199e+00 
1.214214e+00 
1.128768e+00 
1.050000e+00 
9.792476e-01 
9.180340e-01 
8.680005e-01 
8.307764e-01 
8.077822e-01 
8.000000e-01 
8.077822e-01 
8.307764e-01 
8.680005e-01 
9.180340e-01 
9.792476e-01 
1.050000e+00 
1.325819e+00 
1.225219e+00 
1.128768e+00 
1.037437e+00 
9.524431e-01 
8.752907e-01 
8.077822e-01 
7.519716e-01 
7.100137e-01 
6.838835e-01 
6.750000e-01 
6.838835e-01 
7.100137e-01 
7.519716e-01 
8.077822e-01 
8.752907e-01 
9.524431e-01 
1.257738e+00 
1.152082e+00 
1.050000e+00 
9.524431e-01 
8.606602e-01 
7.762812e-01 
7.013878e-01 
6.385255e-01 
5.905694e-01 
5.603453e-01 
5.500000e-01 
5.603453e-01 
5.905694e-01 
6.385255e-01 
7.013878e-01 
7.762812e-01 
8.606602e-01 
1.197542e+00 
1.086954e+00 
9.792476e-01 
8.752907e-01 
7.762812e-01 
6.838835e-01 
6.003905e-01 
5.288690e-01 
4.731456e-01 
4.373774e-01 
4.250000e-01 
4.373774e-01 
4.731456e-01 
5.288690e-01 
6.003905e-01 
6.838835e-01 
7.762812e-01 
1.146291e+00 
1.031107e+00 
9.180340e-01 
8.077822e-01 
7.013878e-01 
6.003905e-01 
5.071068e-01 
4.250000e-01 
3.590170e-01 
3.153882e-01 
3.000000e-01 
3.153882e-01 
3.590170e-01 
4.250000e-01 
5.071068e-01 
6.003905e-01 
7.013878e-01 
1.105038e+00 
9.858541e-01 
8.680005e-01 
7.519716e-01 
6.385255e-01 
5.288690e-01 
4.250000e-01 
3.303301e-01 
2.506939e-01 
1.952847e-01 
1.750000e-01 
1.952847e-01 
2.506939e-01 
3.303301e-01 
4.250000e-01 
5.288690e-01 
6.385255e-01 
1.074755e+00 
9.524431e-01 
8.307764e-01 
7.100137e-01 
5.905694e-01 
4.731456e-01 
3.590170e-01 
2.506939e-01 
1.535534e-01 
7.950850e-02 
5.000000e-02 
7.950850e-02 
1.535534e-01 
2.506939e-01 
3.590170e-01 
4.731456e-01 
5.905694e-01 
1.056234e+00 
9.319231e-01 
8.077822e-01 
6.838835e-01 
5.603453e-01 
4.373774e-01 
3.153882e-01 
1.952847e-01 
7.950850e-02 
-2.322330e-02 
-7.500000e-02 
-2.322330e-02 
7.950850e-02 
1.952847e-01 
3.153882e-01 
4.373774e-01 
5.603453e-01 
1.050000e+00 
9.250000e-01 
8.000000e-01 
6.750000e-01 
5.500000e-01 
4.250000e-01 
3.000000e-01 
1.750000e-01 
5.000000e-02 
-7.500000e-02 
-2.000000e-01 
-7.500000e-02 
5.000000e-02 
1.750000e-01 
3.000000e-01 
4.250000e-01 
5.500000e-01 
1.056234e+00 
9.319231e-01 
8.077822e-01 
6.838835e-01 
5.603453e-01 
4.373774e-01 
3.153882e-01 
1.952847e-01 
7.950850e-02 
-2.322330e-02 
-7.500000e-02 
-2.322330e-02 
7.950850e-02 
1.952847e-01 
3.153882e-01 
4.373774e-01 
5.603453e-01 
1.074755e+00 
9.524431e-01 
8.307764e-01 
7.100137e-01 
5.905694e-01 
4.731456e-01 
3.590170e-01 
2.506939e-01 
1.535534e-01 
7.950850e-02 
5.000000e-02 
7.950850e-02 
1.535534e-01 
2.506939e-01 
3.590170e-01 
4.731456e-01 
5.905694e-01 
1.105038e+00 
9.858541e-01 
8.680005e-01 
7.519716e-01 
6.385255e-01 
5.288690e-01 
4.250000e-01 
3.303301e-01 
2.506939e-01 
1.952847e-01 
1.750000e-01 
1.952847e-01 
2.506939e-01 
3.303301e-01 
4.250000e-01 
5.288690e-01 
6.385255e-01 
1.146291e+00 
1.031107e+00 
9.180340e-01 
8.077822e-01 
7.013878e-01 
6.003905e-01 
5.071068e-01 
4.250000e-01 
3.590170e-01 
3.153882e-01 
3.000000e-01 
3.153882e-01 
3.590170e-01 
4.250000e-01 
5.071068e-01 
6.003905e-01 
7.013878e-01 
1.197542e+00 
1.086954e+00 
9.792476e-01 
8.752907e-01 
7.762812e-01 
6.838835e-01 
6.003905e-01 
5.288690e-01 
4.731456e-01 
4.373774e-01 
4.250000e-01 
4.373774e-01 
4.731456e-01 
5.288690e-01 
6.003905e-01 
6.838835e-01 
7.762812e-01 
1.257738e+00 
1.152082e+00 
1.050000e+00 
9.524431e-01 
8.606602e-01 
7.762812e-01 
7.013878e-01 
6.385255e-01 
5.905694e-01 
5.603453e-01 
5.500000e-01 
5.603453e-01 
5.905694e-01 
6.385255e-01 
7.013878e-01 
7.762812e-01 
8.606602e-01 
1.325819e+00 
1.225219e+00 
1.128768e+00 
1.037437e+00 
9.524431e-01 
8.752907e-01 
8.077822e-01 
7.519716e-01 
7.100137e-01 
6.838835e-01 
6.750000e-01 
6.838835e-01 
7.100137e-01 
7.519716e-01 
8.077822e-01 
8.752907e-01 
9.524431e-01 
1.400781e+00 
1.305199e+00 
1.214214e+00 
1.128768e+00 
1.050000e+00 
9.792476e-01 
9.180340e-01 
8.680005e-01 
8.307764e-01 
8.077822e-01 
8.000000e-01 
8.077822e-01 
8.307764e-01 
8.680005e-01 
9.180340e-01 
9.792476e-01 
1.050000e+00 
SCALARS numer_sol=0 double 1 
LOOKUP_TABLE default 
1.419102e+00 
1.325247e+00 
1.236627e+00 
1.153369e+00 
1.076087e+00 
1.006481e+00 
9.465639e-01 
8.975570e-01 
8.610949e-01 
8.384611e-01 
8.305481e-01 
8.377245e-01 
8.592320e-01 
8.947039e-01 
9.410545e-01 
9.986004e-01 
1.065728e+00 
1.345270e+00 
1.247066e+00 
1.152240e+00 
1.062396e+00 
9.789846e-01 
9.030191e-01 
8.367856e-01 
7.822060e-01 
7.413093e-01 
7.160915e-01 
7.075350e-01 
7.160286e-01 
7.410198e-01 
7.811667e-01 
8.337801e-01 
8.980400e-01 
9.706563e-01 
1.277079e+00 
1.173804e+00 
1.073541e+00 
9.773460e-01 
8.867822e-01 
8.034668e-01 
7.297789e-01 
6.682738e-01 
6.217161e-01 
5.930148e-01 
5.836443e-01 
5.941001e-01 
6.235808e-01 
6.697847e-01 
7.297848e-01 
8.010635e-01 
8.806447e-01 
1.217189e+00 
1.108431e+00 
1.002175e+00 
8.993072e-01 
8.011292e-01 
7.095144e-01 
6.271967e-01 
5.573179e-01 
5.035071e-01 
4.699168e-01 
4.593162e-01 
4.724480e-01 
5.077815e-01 
5.618981e-01 
6.305856e-01 
7.102052e-01 
7.977281e-01 
1.165584e+00 
1.051874e+00 
9.398044e-01 
8.301813e-01 
7.242009e-01 
6.238423e-01 
5.321122e-01 
4.526048e-01 
3.895291e-01 
3.486365e-01 
3.354666e-01 
3.519463e-01 
3.951236e-01 
4.593390e-01 
5.385764e-01 
6.278305e-01 
7.239166e-01 
1.123336e+00 
1.005386e+00 
8.881232e-01 
7.722595e-01 
6.588864e-01 
5.502290e-01 
4.496990e-01 
3.605964e-01 
2.868857e-01 
2.363750e-01 
2.179163e-01 
2.365319e-01 
2.889445e-01 
3.656279e-01 
4.569464e-01 
5.566094e-01 
6.612480e-01 
1.091828e+00 
9.704213e-01 
8.489516e-01 
7.279116e-01 
6.082590e-01 
4.929674e-01 
3.851139e-01 
2.860934e-01 
2.016816e-01 
1.393296e-01 
1.139530e-01 
1.341517e-01 
1.964943e-01 
2.870502e-01 
3.909024e-01 
5.004916e-01 
6.127197e-01 
1.071884e+00 
9.482312e-01 
8.239235e-01 
6.993692e-01 
5.754590e-01 
4.557143e-01 
3.415922e-01 
2.332322e-01 
1.339987e-01 
6.883799e-02 
3.532609e-02 
5.679682e-02 
1.287792e-01 
2.318236e-01 
3.460798e-01 
4.633010e-01 
5.810704e-01 
1.064024e+00 
9.393536e-01 
8.139276e-01 
6.880093e-01 
5.625314e-01 
4.406457e-01 
3.227550e-01 
2.107726e-01 
5.000000e-02 
3.241421e-02 
-2.200323e-03 
2.038225e-02 
9.875971e-02 
2.086561e-01 
3.276689e-01 
4.481570e-01 
5.683244e-01 
1.068629e+00 
9.445690e-01 
8.198895e-01 
6.949184e-01 
5.705436e-01 
4.494437e-01 
3.326498e-01 
2.238552e-01 
1.225695e-01 
5.188902e-02 
1.596409e-02 
4.142330e-02 
1.166998e-01 
2.233262e-01 
3.391226e-01 
4.571935e-01 
5.755274e-01 
1.085393e+00 
9.633629e-01 
8.411848e-01 
7.193330e-01 
5.986594e-01 
4.813358e-01 
3.696600e-01 
2.657149e-01 
1.764635e-01 
1.130825e-01 
8.802502e-02 
1.110539e-01 
1.772782e-01 
2.718532e-01 
3.778239e-01 
4.888104e-01 
6.021851e-01 
1.113805e+00 
9.950291e-01 
8.768307e-01 
7.599035e-01 
6.451667e-01 
5.343736e-01 
4.303800e-01 
3.372107e-01 
2.604029e-01 
2.085490e-01 
1.900650e-01 
2.102732e-01 
2.657539e-01 
3.455739e-01 
4.389045e-01 
5.401971e-01 
6.463235e-01 
1.153153e+00 
1.038503e+00 
9.253741e-01 
8.145323e-01 
7.071692e-01 
6.049100e-01 
5.103946e-01 
4.277094e-01 
3.622347e-01 
3.200587e-01 
3.063457e-01 
3.235809e-01 
3.688764e-01 
4.354166e-01 
5.163888e-01 
6.072328e-01 
7.050281e-01 
1.202340e+00 
1.092378e+00 
9.849063e-01 
8.807074e-01 
7.811591e-01 
6.878811e-01 
6.033671e-01 
5.311338e-01 
4.751873e-01 
4.401506e-01 
4.289489e-01 
4.426256e-01 
4.793451e-01 
5.349834e-01 
6.053017e-01 
6.865658e-01 
7.762822e-01 
1.260398e+00 
1.155298e+00 
1.053642e+00 
9.561462e-01 
8.641913e-01 
7.793244e-01 
7.038298e-01 
6.404821e-01 
5.921409e-01 
5.622757e-01 
5.525077e-01 
5.632577e-01 
5.935152e-01 
6.407865e-01 
7.021765e-01 
7.752021e-01 
8.578212e-01 
1.326632e+00 
1.226355e+00 
1.129998e+00 
1.039092e+00 
9.539914e-01 
8.767596e-01 
8.088998e-01 
7.528347e-01 
7.104541e-01 
6.843233e-01 
6.754262e-01 
6.840387e-01 
7.095776e-01 
7.504775e-01 
8.049680e-01 
8.714749e-01 
9.484470e-01 
1.400578e+00 
1.304528e+00 
1.213316e+00 
1.127998e+00 
1.049180e+00 
9.785496e-01 
9.170656e-01 
8.669323e-01 
8.291972e-01 
8.059839e-01 
7.977694e-01 
8.048871e-01 
8.271069e-01 
8.634414e-01 
9.127640e-01 
9.741472e-01 
1.046751e+00 
SCALARS errors=0 double 1 
LOOKUP_TABLE default 
-1.832058e-02 
-2.004759e-02 
-2.241325e-02 
-2.460086e-02 
-2.608695e-02 
-2.723310e-02 
-2.852994e-02 
-2.955655e-02 
-3.031854e-02 
-3.067892e-02 
-3.054811e-02 
-2.994227e-02 
-2.845558e-02 
-2.670346e-02 
-2.302046e-02 
-1.935271e-02 
-1.572770e-02 
-1.945081e-02 
-2.184695e-02 
-2.347215e-02 
-2.495927e-02 
-2.654152e-02 
-2.772841e-02 
-2.900338e-02 
-3.023440e-02 
-3.129554e-02 
-3.220806e-02 
-3.253497e-02 
-3.214515e-02 
-3.100602e-02 
-2.919509e-02 
-2.599785e-02 
-2.274938e-02 
-1.821327e-02 
-1.934106e-02 
-2.172254e-02 
-2.354100e-02 
-2.490291e-02 
-2.612205e-02 
-2.718561e-02 
-2.839109e-02 
-2.974832e-02 
-3.114668e-02 
-3.266952e-02 
-3.364426e-02 
-3.375477e-02 
-3.301137e-02 
-3.125923e-02 
-2.839700e-02 
-2.478233e-02 
-1.998458e-02 
-1.964651e-02 
-2.147710e-02 
-2.292745e-02 
-2.401652e-02 
-2.484796e-02 
-2.563093e-02 
-2.680621e-02 
-2.844889e-02 
-3.036149e-02 
-3.253938e-02 
-3.431624e-02 
-3.507056e-02 
-3.463589e-02 
-3.302911e-02 
-3.019504e-02 
-2.632172e-02 
-2.144692e-02 
-1.929299e-02 
-2.076629e-02 
-2.177042e-02 
-2.239906e-02 
-2.281311e-02 
-2.345179e-02 
-2.500547e-02 
-2.760483e-02 
-3.051213e-02 
-3.324826e-02 
-3.546657e-02 
-3.655813e-02 
-3.610664e-02 
-3.433899e-02 
-3.146958e-02 
-2.743997e-02 
-2.252880e-02 
-1.829749e-02 
-1.953157e-02 
-2.012270e-02 
-2.028788e-02 
-2.036088e-02 
-2.135999e-02 
-2.469902e-02 
-3.026627e-02 
-3.619179e-02 
-4.109033e-02 
-4.291632e-02 
-4.124721e-02 
-3.825057e-02 
-3.529786e-02 
-3.194645e-02 
-2.774044e-02 
-2.272249e-02 
-1.707359e-02 
-1.797821e-02 
-1.817522e-02 
-1.789790e-02 
-1.768958e-02 
-1.982176e-02 
-2.609687e-02 
-3.539949e-02 
-4.812820e-02 
-5.982113e-02 
-6.395297e-02 
-5.464321e-02 
-4.294092e-02 
-3.635625e-02 
-3.188540e-02 
-2.734599e-02 
-2.215026e-02 
-1.564995e-02 
-1.630803e-02 
-1.614131e-02 
-1.548575e-02 
-1.511373e-02 
-1.833683e-02 
-2.620401e-02 
-3.794748e-02 
-5.449025e-02 
-9.206130e-02 
-1.103261e-01 
-8.002012e-02 
-4.927072e-02 
-3.653890e-02 
-3.069162e-02 
-2.592356e-02 
-2.072505e-02 
-1.402437e-02 
-1.435362e-02 
-1.392759e-02 
-1.300933e-02 
-1.253142e-02 
-1.564572e-02 
-2.275498e-02 
-3.577256e-02 
0.000000e+00 
-1.074142e-01 
-1.977997e-01 
-9.538225e-02 
-4.875971e-02 
-3.365609e-02 
-2.766887e-02 
-2.315701e-02 
-1.832439e-02 
-1.239481e-02 
-1.264582e-02 
-1.210723e-02 
-1.103490e-02 
-1.019824e-02 
-1.206626e-02 
-1.726157e-02 
-2.857050e-02 
-4.306103e-02 
-7.511232e-02 
-9.096409e-02 
-6.464661e-02 
-3.719134e-02 
-2.804151e-02 
-2.373442e-02 
-1.981605e-02 
-1.518212e-02 
-1.063845e-02 
-1.091980e-02 
-1.040842e-02 
-9.319295e-03 
-8.090008e-03 
-8.190159e-03 
-1.064296e-02 
-1.502103e-02 
-2.291014e-02 
-3.357403e-02 
-3.802502e-02 
-3.154540e-02 
-2.372484e-02 
-2.115927e-02 
-1.880690e-02 
-1.566484e-02 
-1.161567e-02 
-8.766506e-03 
-9.175018e-03 
-8.830229e-03 
-7.931892e-03 
-6.641184e-03 
-5.504604e-03 
-5.380017e-03 
-6.880612e-03 
-9.708949e-03 
-1.326426e-02 
-1.506500e-02 
-1.498849e-02 
-1.506003e-02 
-1.524384e-02 
-1.390448e-02 
-1.132812e-02 
-7.797978e-03 
-6.861605e-03 
-7.396049e-03 
-7.340092e-03 
-6.750043e-03 
-5.781376e-03 
-4.519451e-03 
-3.287785e-03 
-2.709389e-03 
-3.217733e-03 
-4.670524e-03 
-6.345749e-03 
-8.192658e-03 
-9.859419e-03 
-1.041657e-02 
-9.282061e-03 
-6.842284e-03 
-3.640317e-03 
-4.797968e-03 
-5.424141e-03 
-5.658680e-03 
-5.416697e-03 
-4.877866e-03 
-3.997612e-03 
-2.976618e-03 
-2.264796e-03 
-2.041717e-03 
-2.773199e-03 
-3.948923e-03 
-5.248118e-03 
-6.199523e-03 
-6.114378e-03 
-4.911145e-03 
-2.682361e-03 
-1.028854e-06 
-2.659746e-03 
-3.215812e-03 
-3.641672e-03 
-3.703166e-03 
-3.531154e-03 
-3.043184e-03 
-2.441977e-03 
-1.956587e-03 
-1.571527e-03 
-1.930419e-03 
-2.507711e-03 
-2.912345e-03 
-2.945809e-03 
-2.261001e-03 
-7.886628e-04 
1.079154e-03 
2.838989e-03 
-8.122123e-04 
-1.135867e-03 
-1.229749e-03 
-1.655205e-03 
-1.548307e-03 
-1.468970e-03 
-1.117565e-03 
-8.631024e-04 
-4.403919e-04 
-4.398328e-04 
-4.262270e-04 
-1.552219e-04 
4.361128e-04 
1.494155e-03 
2.814207e-03 
3.815721e-03 
3.996094e-03 
2.034419e-04 
6.715188e-04 
8.975534e-04 
7.702365e-04 
8.199963e-04 
6.980485e-04 
9.683770e-04 
1.068121e-03 
1.579175e-03 
1.798302e-03 
2.230565e-03 
2.895165e-03 
3.669498e-03 
4.559022e-03 
5.269940e-03 
5.100487e-03 
3.248957e-03 
SCALARS numer_sol=1 double 1 
LOOKUP_TABLE default 
1.394069e+00 
1.301517e+00 
1.213618e+00 
1.131021e+00 
1.054817e+00 
9.862861e-01 
9.269041e-01 
8.781964e-01 
8.416219e-01 
8.184929e-01 
8.097481e-01 
8.157644e-01 
8.361613e-01 
8.700628e-01 
9.164162e-01 
9.743087e-01 
1.043031e+00 
1.322268e+00 
1.225071e+00 
1.131964e+00 
1.043680e+00 
9.614507e-01 
8.867880e-01 
8.214516e-01 
7.674090e-01 
7.265714e-01 
7.009186e-01 
6.913747e-01 
6.984879e-01 
7.216958e-01 
7.597032e-01 
8.109247e-01 
8.739246e-01 
9.475284e-01 
1.256996e+00 
1.154964e+00 
1.056313e+00 
9.618715e-01 
8.729806e-01 
7.913606e-01 
7.190996e-01 
6.586317e-01 
6.125299e-01 
5.836214e-01 
5.732784e-01 
5.820830e-01 
6.091312e-01 
6.524786e-01 
7.098304e-01 