# vtk DataFile Version 2.0 
Quadtree Mesh 
ASCII 
DATASET UNSTRUCTURED_GRID 
POINTS 4225 double 
-1.000000e+00 -1.000000e+00 0.000000e+00
-9.687500e-01 -1.000000e+00 0.000000e+00
-9.375000e-01 -1.000000e+00 0.000000e+00
-9.062500e-01 -1.000000e+00 0.000000e+00
-8.750000e-01 -1.000000e+00 0.000000e+00
-8.437500e-01 -1.000000e+00 0.000000e+00
-8.125000e-01 -1.000000e+00 0.000000e+00
-7.812500e-01 -1.000000e+00 0.000000e+00
-7.500000e-01 -1.000000e+00 0.000000e+00
-7.187500e-01 -1.000000e+00 0.000000e+00
-6.875000e-01 -1.000000e+00 0.000000e+00
-6.562500e-01 -1.000000e+00 0.000000e+00
-6.250000e-01 -1.000000e+00 0.000000e+00
-5.937500e-01 -1.000000e+00 0.000000e+00
-5.625000e-01 -1.000000e+00 0.000000e+00
-5.312500e-01 -1.000000e+00 0.000000e+00
-5.000000e-01 -1.000000e+00 0.000000e+00
-4.687500e-01 -1.000000e+00 0.000000e+00
-4.375000e-01 -1.000000e+00 0.000000e+00
-4.062500e-01 -1.000000e+00 0.000000e+00
-3.750000e-01 -1.000000e+00 0.000000e+00
-3.437500e-01 -1.000000e+00 0.000000e+00
-3.125000e-01 -1.000000e+00 0.000000e+00
-2.812500e-01 -1.000000e+00 0.000000e+00
-2.500000e-01 -1.000000e+00 0.000000e+00
-2.187500e-01 -1.000000e+00 0.000000e+00
-1.875000e-01 -1.000000e+00 0.000000e+00
-1.562500e-01 -1.000000e+00 0.000000e+00
-1.250000e-01 -1.000000e+00 0.000000e+00
-9.375000e-02 -1.000000e+00 0.000000e+00
-6.250000e-02 -1.000000e+00 0.000000e+00
-3.125000e-02 -1.000000e+00 0.000000e+00
0.000000e+00 -1.000000e+00 0.000000e+00
3.125000e-02 -1.000000e+00 0.000000e+00
6.250000e-02 -1.000000e+00 0.000000e+00
9.375000e-02 -1.000000e+00 0.000000e+00
1.250000e-01 -1.000000e+00 0.000000e+00
1.562500e-01 -1.000000e+00 0.000000e+00
1.875000e-01 -1.000000e+00 0.000000e+00
2.187500e-01 -1.000000e+00 0.000000e+00
2.500000e-01 -1.000000e+00 0.000000e+00
2.812500e-01 -1.000000e+00 0.000000e+00
3.125000e-01 -1.000000e+00 0.000000e+00
3.437500e-01 -1.000000e+00 0.000000e+00
3.750000e-01 -1.000000e+00 0.000000e+00
4.062500e-01 -1.000000e+00 0.000000e+00
4.375000e-01 -1.000000e+00 0.000000e+00
4.687500e-01 -1.000000e+00 0.000000e+00
5.000000e-01 -1.000000e+00 0.000000e+00
5.312500e-01 -1.000000e+00 0.000000e+00
5.625000e-01 -1.000000e+00 0.000000e+00
5.937500e-01 -1.000000e+00 0.000000e+00
6.250000e-01 -1.000000e+00 0.000000e+00
6.562500e-01 -1.000000e+00 0.000000e+00
6.875000e-01 -1.000000e+00 0.000000e+00
7.187500e-01 -1.000000e+00 0.000000e+00
7.500000e-01 -1.000000e+00 0.000000e+00
7.812500e-01 -1.000000e+00 0.000000e+00
8.125000e-01 -1.000000e+00 0.000000e+00
8.437500e-01 -1.000000e+00 0.000000e+00
8.750000e-01 -1.000000e+00 0.000000e+00
9.062500e-01 -1.000000e+00 0.000000e+00
9.375000e-01 -1.000000e+00 0.000000e+00
9.687500e-01 -1.000000e+00 0.000000e+00
1.000000e+00 -1.000000e+00 0.000000e+00
-1.000000e+00 -9.687500e-01 0.000000e+00
-9.687500e-01 -9.687500e-01 0.000000e+00
-9.375000e-01 -9.687500e-01 0.000000e+00
-9.062500e-01 -9.687500e-01 0.000000e+00
-8.750000e-01 -9.687500e-01 0.000000e+00
-8.437500e-01 -9.687500e-01 0.000000e+00
-8.125000e-01 -9.687500e-01 0.000000e+00
-7.812500e-01 -9.687500e-01 0.000000e+00
-7.500000e-01 -9.687500e-01 0.000000e+00
-7.187500e-01 -9.687500e-01 0.000000e+00
-6.875000e-01 -9.687500e-01 0.000000e+00
-6.562500e-01 -9.687500e-01 0.000000e+00
-6.250000e-01 -9.687500e-01 0.000000e+00
-5.937500e-01 -9.687500e-01 0.000000e+00
-5.625000e-01 -9.687500e-01 0.000000e+00
-5.312500e-01 -9.687500e-01 0.000000e+00
-5.000000e-01 -9.687500e-01 0.000000e+00
-4.687500e-01 -9.687500e-01 0.000000e+00
-4.375000e-01 -9.687500e-01 0.000000e+00
-4.062500e-01 -9.687500e-01 0.000000e+00
-3.750000e-01 -9.687500e-01 0.000000e+00
-3.437500e-01 -9.687500e-01 0.000000e+00
-3.125000e-01 -9.687500e-01 0.000000e+00
-2.812500e-01 -9.687500e-01 0.000000e+00
-2.500000e-01 -9.687500e-01 0.000000e+00
-2.187500e-01 -9.687500e-01 0.000000e+00
-1.875000e-01 -9.687500e-01 0.000000e+00
-1.562500e-01 -9.687500e-01 0.000000e+00
-1.250000e-01 -9.687500e-01 0.000000e+00
-9.375000e-02 -9.687500e-01 0.000000e+00
-6.250000e-02 -9.687500e-01 0.000000e+00
-3.125000e-02 -9.687500e-01 0.000000e+00
0.000000e+00 -9.687500e-01 0.000000e+00
3.125000e-02 -9.687500e-01 0.000000e+00
6.250000e-02 -9.687500e-01 0.000000e+00
9.375000e-02 -9.687500e-01 0.000000e+00
1.250000e-01 -9.687500e-01 0.000000e+00
1.562500e-01 -9.687500e-01 0.000000e+00
1.875000e-01 -9.687500e-01 0.000000e+00
2.187500e-01 -9.687500e-01 0.000000e+00
2.500000e-01 -9.687500e-01 0.000000e+00
2.812500e-01 -9.687500e-01 0.000000e+00
3.125000e-01 -9.687500e-01 0.000000e+00
3.437500e-01 -9.687500e-01 0.000000e+00
3.750000e-01 -9.687500e-01 0.000000e+00
4.062500e-01 -9.687500e-01 0.000000e+00
4.375000e-01 -9.687500e-01 0.000000e+00
4.687500e-01 -9.687500e-01 0.000000e+00
5.000000e-01 -9.687500e-01 0.000000e+00
5.312500e-01 -9.687500e-01 0.000000e+00
5.625000e-01 -9.687500e-01 0.000000e+00
5.937500e-01 -9.687500e-01 0.000000e+00
6.250000e-01 -9.687500e-01 0.000000e+00
6.562500e-01 -9.687500e-01 0.000000e+00
6.875000e-01 -9.687500e-01 0.000000e+00
7.187500e-01 -9.687500e-01 0.000000e+00
7.500000e-01 -9.687500e-01 0.000000e+00
7.812500e-01 -9.687500e-01 0.000000e+00
8.125000e-01 -9.687500e-01 0.000000e+00
8.437500e-01 -9.687500e-01 0.000000e+00
8.750000e-01 -9.687500e-01 0.000000e+00
9.062500e-01 -9.687500e-01 0.000000e+00
9.375000e-01 -9.687500e-01 0.000000e+00
9.687500e-01 -9.687500e-01 0.000000e+00
1.000000e+00 -9.687500e-01 0.000000e+00
-1.000000e+00 -9.375000e-01 0.000000e+00
-9.687500e-01 -9.375000e-01 0.000000e+00
-9.375000e-01 -9.375000e-01 0.000000e+00
-9.062500e-01 -9.375000e-01 0.000000e+00
-8.750000e-01 -9.375000e-01 0.000000e+00
-8.437500e-01 -9.375000e-01 0.000000e+00
-8.125000e-01 -9.375000e-01 0.000000e+00
-7.812500e-01 -9.375000e-01 0.000000e+00
-7.500000e-01 -9.375000e-01 0.000000e+00
-7.187500e-01 -9.375000e-01 0.000000e+00
-6.875000e-01 -9.375000e-01 0.000000e+00
-6.562500e-01 -9.375000e-01 0.000000e+00
-6.250000e-01 -9.375000e-01 0.000000e+00
-5.937500e-01 -9.375000e-01 0.000000e+00
-5.625000e-01 -9.375000e-01 0.000000e+00
-5.312500e-01 -9.375000e-01 0.000000e+00
-5.000000e-01 -9.375000e-01 0.000000e+00
-4.687500e-01 -9.375000e-01 0.000000e+00
-4.375000e-01 -9.375000e-01 0.000000e+00
-4.062500e-01 -9.375000e-01 0.000000e+00
-3.750000e-01 -9.375000e-01 0.000000e+00
-3.437500e-01 -9.375000e-01 0.000000e+00
-3.125000e-01 -9.375000e-01 0.000000e+00
-2.812500e-01 -9.375000e-01 0.000000e+00
-2.500000e-01 -9.375000e-01 0.000000e+00
-2.187500e-01 -9.375000e-01 0.000000e+00
-1.875000e-01 -9.375000e-01 0.000000e+00
-1.562500e-01 -9.375000e-01 0.000000e+00
-1.250000e-01 -9.375000e-01 0.000000e+00
-9.375000e-02 -9.375000e-01 0.000000e+00
-6.250000e-02 -9.375000e-01 0.000000e+00
-3.125000e-02 -9.375000e-01 0.000000e+00
0.000000e+00 -9.375000e-01 0.000000e+00
3.125000e-02 -9.375000e-01 0.000000e+00
6.250000e-02 -9.375000e-01 0.000000e+00
9.375000e-02 -9.375000e-01 0.000000e+00
1.250000e-01 -9.375000e-01 0.000000e+00
1.562500e-01 -9.375000e-01 0.000000e+00
1.875000e-01 -9.375000e-01 0.000000e+00
2.187500e-01 -9.375000e-01 0.000000e+00
2.500000e-01 -9.375000e-01 0.000000e+00
2.812500e-01 -9.375000e-01 0.000000e+00
3.125000e-01 -9.375000e-01 0.000000e+00
3.437500e-01 -9.375000e-01 0.000000e+00
3.750000e-01 -9.375000e-01 0.000000e+00
4.062500e-01 -9.375000e-01 0.000000e+00
4.375000e-01 -9.375000e-01 0.000000e+00
4.687500e-01 -9.375000e-01 0.000000e+00
5.000000e-01 -9.375000e-01 0.000000e+00
5.312500e-01 -9.375000e-01 0.000000e+00
5.625000e-01 -9.375000e-01 0.000000e+00
5.937500e-01 -9.375000e-01 0.000000e+00
6.250000e-01 -9.375000e-01 0.000000e+00
6.562500e-01 -9.375000e-01 0.000000e+00
6.875000e-01 -9.375000e-01 0.000000e+00
7.187500e-01 -9.375000e-01 0.000000e+00
7.500000e-01 -9.375000e-01 0.000000e+00
7.812500e-01 -9.375000e-01 0.000000e+00
8.125000e-01 -9.375000e-01 0.000000e+00
8.437500e-01 -9.375000e-01 0.000000e+00
8.750000e-01 -9.375000e-01 0.000000e+00
9.062500e-01 -9.375000e-01 0.000000e+00
9.375000e-01 -9.375000e-01 0.000000e+00
9.687500e-01 -9.375000e-01 0.000000e+00
1.000000e+00 -9.375000e-01 0.000000e+00
-1.000000e+00 -9.062500e-01 0.000000e+00
-9.687500e-01 -9.062500e-01 0.000000e+00
-9.375000e-01 -9.062500e-01 0.000000e+00
-9.062500e-01 -9.062500e-01 0.000000e+00
-8.750000e-01 -9.062500e-01 0.000000e+00
-8.437500e-01 -9.062500e-01 0.000000e+00
-8.125000e-01 -9.062500e-01 0.000000e+00
-7.812500e-01 -9.062500e-01 0.000000e+00
-7.500000e-01 -9.062500e-01 0.000000e+00
-7.187500e-01 -9.062500e-01 0.000000e+00
-6.875000e-01 -9.062500e-01 0.000000e+00
-6.562500e-01 -9.062500e-01 0.000000e+00
-6.250000e-01 -9.062500e-01 0.000000e+00
-5.937500e-01 -9.062500e-01 0.000000e+00
-5.625000e-01 -9.062500e-01 0.000000e+00
-5.312500e-01 -9.062500e-01 0.000000e+00
-5.000000e-01 -9.062500e-01 0.000000e+00
-4.687500e-01 -9.062500e-01 0.000000e+00
-4.375000e-01 -9.062500e-01 0.000000e+00
-4.062500e-01 -9.062500e-01 0.000000e+00
-3.750000e-01 -9.062500e-01 0.000000e+00
-3.437500e-01 -9.062500e-01 0.000000e+00
-3.125000e-01 -9.062500e-01 0.000000e+00
-2.812500e-01 -9.062500e-01 0.000000e+00
-2.500000e-01 -9.062500e-01 0.000000e+00
-2.187500e-01 -9.062500e-01 0.000000e+00
-1.875000e-01 -9.062500e-01 0.000000e+00
-1.562500e-01 -9.062500e-01 0.000000e+00
-1.250000e-01 -9.062500e-01 0.000000e+00
-9.375000e-02 -9.062500e-01 0.000000e+00
-6.250000e-02 -9.062500e-01 0.000000e+00
-3.125000e-02 -9.062500e-01 0.000000e+00
0.000000e+00 -9.062500e-01 0.000000e+00
3.125000e-02 -9.062500e-01 0.000000e+00
6.250000e-02 -9.062500e-01 0.000000e+00
9.375000e-02 -9.062500e-01 0.000000e+00
1.250000e-01 -9.062500e-01 0.000000e+00
1.562500e-01 -9.062500e-01 0.000000e+00
1.875000e-01 -9.062500e-01 0.000000e+00
2.187500e-01 -9.062500e-01 0.000000e+00
2.500000e-01 -9.062500e-01 0.000000e+00
2.812500e-01 -9.062500e-01 0.000000e+00
3.125000e-01 -9.062500e-01 0.000000e+00
3.437500e-01 -9.062500e-01 0.000000e+00
3.750000e-01 -9.062500e-01 0.000000e+00
4.062500e-01 -9.062500e-01 0.000000e+00
4.375000e-01 -9.062500e-01 0.000000e+00
4.687500e-01 -9.062500e-01 0.000000e+00
5.000000e-01 -9.062500e-01 0.000000e+00
[...]
POINT_DATA 4225 
SCALARS iniData double 1 
LOOKUP_TABLE default 
1.400781e+00 
1.376500e+00 
1.352468e+00 
1.328697e+00 
1.305199e+00 
1.281988e+00 
1.259077e+00 
1.236481e+00 
1.214214e+00 
1.192292e+00 
1.170732e+00 
1.149551e+00 
1.128768e+00 
1.108401e+00 
1.088471e+00 
1.068996e+00 
1.050000e+00 
1.031504e+00 
1.013530e+00 
9.961037e-01 
9.792476e-01 
9.629871e-01 
9.473475e-01 
9.323544e-01 
9.180340e-01 
9.044123e-01 
8.915156e-01 
8.793698e-01 
8.680005e-01 
8.574328e-01 
8.476909e-01 
8.387981e-01 
8.307764e-01 
8.236462e-01 
8.174263e-01 
8.121334e-01 
8.077822e-01 
8.043849e-01 
8.019512e-01 
8.004882e-01 
8.000000e-01 
8.004882e-01 
8.019512e-01 
8.043849e-01 
8.077822e-01 
8.121334e-01 
8.174263e-01 
8.236462e-01 
8.307764e-01 
8.387981e-01 
8.476909e-01 
8.574328e-01 
8.680005e-01 
8.793698e-01 
8.915156e-01 
9.044123e-01 
9.180340e-01 
9.323544e-01 
9.473475e-01 
9.629871e-01 
9.792476e-01 
9.961037e-01 
1.013530e+00 
1.031504e+00 
1.050000e+00 
1.381448e+00 
1.356865e+00 
1.332525e+00 
1.308440e+00 
1.284622e+00 
1.261084e+00 
1.237840e+00 
1.214904e+00 
1.192292e+00 
1.170019e+00 
1.148103e+00 
1.126562e+00 
1.105412e+00 
1.084675e+00 
1.064371e+00 
1.044519e+00 
1.025143e+00 
1.006266e+00 
9.879111e-01 
9.701028e-01 
9.528667e-01 
9.362287e-01 
9.202155e-01 
9.048543e-01 
8.901727e-01 
8.761985e-01 
8.629595e-01 
8.504835e-01 
8.387981e-01 
8.279303e-01 
8.179061e-01 
8.087508e-01 
8.004882e-01 
7.931405e-01 
7.867283e-01 
7.812699e-01 
7.767812e-01 
7.732757e-01 
7.707640e-01 
7.692539e-01 
7.687500e-01 
7.692539e-01 
7.707640e-01 
7.732757e-01 
7.767812e-01 
7.812699e-01 
7.867283e-01 
7.931405e-01 
8.004882e-01 
8.087508e-01 
8.179061e-01 
8.279303e-01 
8.387981e-01 
8.504835e-01 
8.629595e-01 
8.761985e-01 
8.901727e-01 
9.048543e-01 
9.202155e-01 
9.362287e-01 
9.528667e-01 
9.701028e-01 
9.879111e-01 
1.006266e+00 
1.025143e+00 
1.362500e+00 
1.337614e+00 
1.312965e+00 
1.288563e+00 
1.264422e+00 
1.240554e+00 
1.216973e+00 
1.193694e+00 
1.170732e+00 
1.148103e+00 
1.125825e+00 
1.103915e+00 
1.082393e+00 
1.061277e+00 
1.040590e+00 
1.020352e+00 
1.000586e+00 
9.813161e-01 
9.625672e-01 
9.443646e-01 
9.267348e-01 
9.097051e-01 
8.933035e-01 
8.775587e-01 
8.625000e-01 
8.481569e-01 
8.345591e-01 
8.217364e-01 
8.097184e-01 
7.985341e-01 
7.882118e-01 
7.787787e-01 
7.702609e-01 
7.626826e-01 
7.560662e-01 
7.504316e-01 
7.457966e-01 
7.421758e-01 
7.395810e-01 
7.380207e-01 
7.375000e-01 
7.380207e-01 
7.395810e-01 
7.421758e-01 
7.457966e-01 
7.504316e-01 
7.560662e-01 
7.626826e-01 
7.702609e-01 
7.787787e-01 
7.882118e-01 
7.985341e-01 
8.097184e-01 
8.217364e-01 
8.345591e-01 
8.481569e-01 
8.625000e-01 
8.775587e-01 
8.933035e-01 
9.097051e-01 
9.267348e-01 
9.443646e-01 
9.625672e-01 
9.813161e-01 
1.000586e+00 
1.343952e+00 
1.318763e+00 
1.293802e+00 
1.269082e+00 
1.244616e+00 
1.220415e+00 
1.196494e+00 
1.172868e+00 
1.149551e+00 
1.126562e+00 
1.103915e+00 
1.081631e+00 
1.059728e+00 
1.038226e+00 
1.017146e+00 
9.965119e-01 
9.763456e-01 
9.566722e-01 
9.375172e-01 
9.189071e-01 
9.008697e-01 
8.834335e-01 
8.666280e-01 
8.504835e-01 
8.350309e-01 
8.203017e-01 
8.063276e-01 
7.931405e-01 
7.807722e-01 
7.692539e-01 
7.586164e-01 
7.488892e-01 
7.401006e-01 
7.322771e-01 
7.254433e-01 
7.196212e-01 
7.148301e-01 
7.110862e-01 
7.084026e-01 
7.067886e-01 
7.062500e-01 
7.067886e-01 
7.084026e-01 
7.110862e-01 
7.148301e-01 
7.196212e-01 
7.254433e-01 
7.322771e-01 
7.401006e-01 
7.488892e-01 
7.586164e-01 
7.692539e-01 
7.807722e-01 
7.931405e-01 
8.063276e-01 
8.203017e-01 
8.350309e-01 
8.504835e-01 
8.666280e-01 
8.834335e-01 
9.008697e-01 
9.189071e-01 
9.375172e-01 
9.566722e-01 
9.763456e-01 
1.325819e+00 
1.300325e+00 
1.275053e+00 
1.250013e+00 
1.225219e+00 
1.200683e+00 
1.176420e+00 
1.152443e+00 
1.128768e+00 
1.105412e+00 
1.082393e+00 
1.059728e+00 
1.037437e+00 
1.015541e+00 
9.940608e-01 
9.730203e-01 
9.524431e-01 
9.323544e-01 
9.127809e-01 
8.937500e-01 
8.752907e-01 
8.574328e-01 
8.402073e-01 
8.236462e-01 
8.077822e-01 
7.926488e-01 
7.782797e-01 
7.647093e-01 
7.519716e-01 
7.401006e-01 
7.291293e-01 
7.190901e-01 
7.100137e-01 
7.019294e-01 
6.948638e-01 
6.888414e-01 
6.838835e-01 
6.800080e-01 
6.772293e-01 
6.755579e-01 
6.750000e-01 
6.755579e-01 
6.772293e-01 
6.800080e-01 
6.838835e-01 
6.888414e-01 
6.948638e-01 
7.019294e-01 
7.100137e-01 
7.190901e-01 
7.291293e-01 
7.401006e-01 
7.519716e-01 
7.647093e-01 
7.782797e-01 
7.926488e-01 
8.077822e-01 
8.236462e-01 
8.402073e-01 
8.574328e-01 
8.752907e-01 
8.937500e-01 
9.127809e-01 
9.323544e-01 
9.524431e-01 
1.308116e+00 
1.282318e+00 
1.256733e+00 
1.231373e+00 
1.206250e+00 
1.181377e+00 
1.156768e+00 
1.132438e+00 
1.108401e+00 
1.084675e+00 
1.061277e+00 
1.038226e+00 
1.015541e+00 
9.932427e-01 
9.713541e-01 
9.498981e-01 
9.288995e-01 
9.083842e-01 
8.883797e-01 
8.689145e-01 
8.500186e-01 
8.317234e-01 
8.140613e-01 
7.970660e-01 
7.807722e-01 
7.652153e-01 
7.504316e-01 
7.364578e-01 
7.233304e-01 
7.110862e-01 
6.997613e-01 
6.893906e-01 
6.800080e-01 
6.716454e-01 
6.643323e-01 
6.580956e-01 
6.529590e-01 
6.489424e-01 
6.460616e-01 
6.443285e-01 
6.437500e-01 
6.443285e-01 
6.460616e-01 
6.489424e-01 
6.529590e-01 
6.580956e-01 
6.643323e-01 
6.716454e-01 
6.800080e-01 
6.893906e-01 
6.997613e-01 
7.110862e-01 
7.233304e-01 
7.364578e-01 
7.504316e-01 
7.652153e-01 
7.807722e-01 
7.970660e-01 
8.140613e-01 
8.317234e-01 
8.500186e-01 
8.689145e-01 
8.883797e-01 
9.083842e-01 
9.288995e-01 
1.290858e+00 
1.264755e+00 
1.238858e+00 
1.213177e+00 
1.187725e+00 
1.162514e+00 
1.137558e+00 
1.112872e+00 
1.088471e+00 
1.064371e+00 
1.040590e+00 
1.017146e+00 
9.940608e-01 
9.713541e-01 
9.490485e-01 
9.271680e-01 
9.057379e-01 
8.847847e-01 
8.643366e-01 
8.444234e-01 
8.250762e-01 
8.063276e-01 
7.882118e-01 
7.707640e-01 
7.540211e-01 
7.380207e-01 
7.228014e-01 
7.084026e-01 
6.948638e-01 
6.822246e-01 
6.705243e-01 
6.598010e-01 
6.500919e-01 
6.414320e-01 
6.338540e-01 
6.273876e-01 
6.220592e-01 
6.178908e-01 
6.149003e-01 
6.131007e-01 
6.125000e-01 
6.131007e-01 
6.149003e-01 
6.178908e-01 
6.220592e-01 
6.273876e-01 
6.338540e-01 
6.414320e-01 
6.500919e-01 
6.598010e-01 
6.705243e-01 
6.822246e-01 
6.948638e-01 
7.084026e-01 
7.228014e-01 
7.380207e-01 
7.540211e-01 
7.707640e-01 
7.882118e-01 
8.063276e-01 
8.250762e-01 
8.444234e-01 
8.643366e-01 
8.847847e-01 
9.057379e-01 
1.274060e+00 
1.247654e+00 
1.221446e+00 
1.195445e+00 
1.169663e+00 
1.144113e+00 
1.118809e+00 
1.093765e+00 
1.068996e+00 
1.044519e+00 
1.020352e+00 
9.965119e-01 
9.730203e-01 
9.498981e-01 
9.271680e-01 
9.048543e-01 
8.829827e-01 
8.615805e-01 
8.406766e-01 
8.203017e-01 
8.004882e-01 
7.812699e-01 
7.626826e-01 
7.447635e-01 
7.275514e-01 
7.110862e-01 
6.954093e-01 
6.805627e-01 
6.665890e-01 
6.535313e-01 
6.414320e-01 
6.303331e-01 
6.202753e-01 
6.112972e-01 
6.034350e-01 
5.967218e-01 
5.911868e-01 
5.868549e-01 
5.837460e-01 
5.818748e-01 
5.812500e-01 
5.818748e-01 
5.837460e-01 
5.868549e-01 
5.911868e-01 
5.967218e-01 
6.034350e-01 
6.112972e-01 
6.202753e-01 
6.303331e-01 
6.414320e-01 
6.535313e-01 
6.665890e-01 
6.805627e-01 
6.954093e-01 
7.110862e-01 
7.275514e-01 
7.447635e-01 
7.626826e-01 
7.812699e-01 
8.004882e-01 
8.203017e-01 
8.406766e-01 
8.615805e-01 
8.829827e-01 
1.257738e+00 
1.231032e+00 
1.204513e+00 
1.178192e+00 
1.152082e+00 
1.126193e+00 
1.100541e+00 
1.075138e+00 
1.050000e+00 
1.025143e+00 
1.000586e+00 
9.763456e-01 
9.524431e-01 
9.288995e-01 
9.057379e-01 
8.829827e-01 
8.606602e-01 
8.387981e-01 
8.174263e-01 
7.965762e-01 
7.762812e-01 
7.565767e-01 
7.375000e-01 
7.190901e-01 
7.013878e-01 
6.844357e-01 
6.682777e-01 
6.529590e-01 
6.385255e-01 
6.250237e-01 
6.125000e-01 
6.010004e-01 
5.905694e-01 
5.812500e-01 
5.730823e-01 
5.661032e-01 
5.603453e-01 
5.558367e-01 
5.525997e-01 
5.506508e-01 
5.500000e-01 
5.506508e-01 
5.525997e-01 
5.558367e-01 
5.603453e-01 
5.661032e-01 
5.730823e-01 
5.812500e-01 
5.905694e-01 
6.010004e-01 
6.125000e-01 
6.250237e-01 
6.385255e-01 
6.529590e-01 
6.682777e-01 
6.844357e-01 
7.013878e-01 
7.190901e-01 
7.375000e-01 
7.565767e-01 
7.762812e-01 
7.965762e-01 
8.174263e-01 
8.387981e-01 
8.606602e-01 
1.241909e+00 
1.214904e+00 
1.188077e+00 
1.161439e+00 
1.135001e+00 
1.108774e+00 
1.082773e+00 
1.057012e+00 
1.031504e+00 
1.006266e+00 
9.813161e-01 
9.566722e-01 
9.323544e-01 
9.083842e-01 
8.847847e-01 
8.615805e-01 
8.387981e-01 
8.164660e-01 
7.946144e-01 
7.732757e-01 
7.524844e-01 
7.322771e-01 
7.126926e-01 
6.937719e-01 
6.755579e-01 
6.580956e-01 
6.414320e-01 
6.256153e-01 
6.106951e-01 
5.967218e-01 
5.837460e-01 
5.718181e-01 
5.609872e-01 
5.513010e-01 
5.428040e-01 
5.355376e-01 
5.295386e-01 
5.248383e-01 
5.214623e-01 
5.194290e-01 
5.187500e-01 
5.194290e-01 
5.214623e-01 
5.248383e-01 
5.295386e-01 
5.355376e-01 
5.428040e-01 
5.513010e-01 
5.609872e-01 
5.718181e-01 
5.837460e-01 
5.967218e-01 
6.106951e-01 
6.256153e-01 
6.414320e-01 
6.580956e-01 
6.755579e-01 
6.937719e-01 
7.126926e-01 
7.322771e-01 
7.524844e-01 
7.732757e-01 
7.946144e-01 
8.164660e-01 
8.387981e-01 
1.226589e+00 
1.199288e+00 
1.172156e+00 
1.145203e+00 
1.118439e+00 
1.091877e+00 
1.065529e+00 
1.039408e+00 
1.013530e+00 
9.879111e-01 
9.625672e-01 
9.375172e-01 
9.127809e-01 
8.883797e-01 
8.643366e-01 
8.406766e-01 
8.174263e-01 
7.946144e-01 
7.722718e-01 
7.504316e-01 
7.291293e-01 
7.084026e-01 
6.882919e-01 
6.688399e-01 
6.500919e-01 
6.320954e-01 
6.149003e-01 
5.985583e-01 
5.831228e-01 
5.686484e-01 
5.551904e-01 
5.428040e-01 
5.315437e-01 
5.214623e-01 
5.126096e-01 
5.050321e-01 
4.987712e-01 
4.938626e-01 
4.903351e-01 
4.882099e-01 
4.875000e-01 
4.882099e-01 
4.903351e-01 
4.938626e-01 
4.987712e-01 
5.050321e-01 
5.126096e-01 
5.214623e-01 
5.315437e-01 
5.428040e-01 
5.551904e-01 
5.686484e-01 
5.831228e-01 
5.985583e-01 
6.149003e-01 
6.320954e-01 
6.500919e-01 
6.688399e-01 
6.882919e-01 
7.084026e-01 
7.291293e-01 
7.504316e-01 
7.722718e-01 
7.946144e-01 
8.174263e-01 
1.211795e+00 
1.184202e+00 
1.156768e+00 
1.129503e+00 
1.102417e+00 
1.075521e+00 
1.048828e+00 
1.022350e+00 
9.961037e-01 
9.701028e-01 
9.443646e-01 
9.189071e-01 
8.937500e-01 
8.689145e-01 
8.444234e-01 
8.203017e-01 
7.965762e-01 
7.732757e-01 
7.504316e-01 
7.280777e-01 
7.062500e-01 
6.849876e-01 
6.643323e-01 
6.443285e-01 
6.250237e-01 
6.064680e-01 
5.887143e-01 
5.718181e-01 
5.558367e-01 
5.408293e-01 
5.268565e-01 
5.139787e-01 
5.022564e-01 
4.917482e-01 
4.825103e-01 
4.745948e-01 
4.680487e-01 
4.629126e-01 
4.592195e-01 
4.569936e-01 
4.562500e-01 
4.569936e-01 
4.592195e-01 
4.629126e-01 
4.680487e-01 
4.745948e-01 
4.825103e-01 
4.917482e-01 
5.022564e-01 
5.139787e-01 
5.268565e-01 
5.408293e-01 
5.558367e-01 
5.718181e-01 
5.887143e-01 
6.064680e-01 
6.250237e-01 
6.443285e-01 
6.643323e-01 
6.849876e-01 
7.062500e-01 
7.280777e-01 
7.504316e-01 
7.732757e-01 
7.965762e-01 
1.197542e+00 
1.169663e+00 
1.141932e+00 
1.114359e+00 
1.086954e+00 
1.059728e+00 
1.032693e+00 
1.005861e+00 
9.792476e-01 
9.528667e-01 
9.267348e-01 
9.008697e-01 
8.752907e-01 
8.500186e-01 
8.250762e-01 
8.004882e-01 
7.762812e-01 
7.524844e-01 
7.291293e-01 
7.062500e-01 
6.838835e-01 
6.620696e-01 
6.408515e-01 
6.202753e-01 
6.003905e-01 
5.812500e-01 
5.629097e-01 
5.454288e-01 
5.288690e-01 
5.132945e-01 
4.987712e-01 
4.853660e-01 
4.731456e-01 
4.621756e-01 
4.525192e-01 
4.442353e-01 
4.373774e-01 
4.319921e-01 
4.281172e-01 
4.257808e-01 
4.250000e-01 
4.257808e-01 
4.281172e-01 
4.319921e-01 
4.373774e-01 
4.442353e-01 
4.525192e-01 
4.621756e-01 
4.731456e-01 
4.853660e-01 
4.987712e-01 
5.132945e-01 
5.288690e-01 
5.454288e-01 
5.629097e-01 
5.812500e-01 
6.003905e-01 
6.202753e-01 
6.408515e-01 
6.620696e-01 
6.838835e-01 
7.062500e-01 
7.291293e-01 
7.524844e-01 
7.762812e-01 
1.183849e+00 
1.155688e+00 
1.127665e+00 
1.099790e+00 
1.072071e+00 
1.044519e+00 
1.017146e+00 
9.899645e-01 
9.629871e-01 
9.362287e-01 
9.097051e-01 
8.834335e-01 
8.574328e-01 
8.317234e-01 
8.063276e-01 
7.812699e-01 
7.565767e-01 
7.322771e-01 
7.084026e-01 
6.849876e-01 
6.620696e-01 
6.396893e-01 
6.178908e-01 
5.967218e-01 
5.762339e-01 
5.564824e-01 
5.375265e-01 
5.194290e-01 
5.022564e-01 
4.860781e-01 
4.709660e-01 
4.569936e-01 
4.442353e-01 
4.327643e-01 
4.226518e-01 
4.139651e-01 
4.067652e-01 
4.011058e-01 
3.970304e-01 
3.945718e-01 
3.937500e-01 
3.945718e-01 
3.970304e-01 
4.011058e-01 
4.067652e-01 
4.139651e-01 
4.226518e-01 
4.327643e-01 
4.442353e-01 
4.569936e-01 
4.709660e-01 
4.860781e-01 
5.022564e-01 
5.194290e-01 
5.375265e-01 
5.564824e-01 
5.762339e-01 
5.967218e-01 
6.178908e-01 
6.396893e-01 
6.620696e-01 
6.849876e-01 
7.084026e-01 
7.322771e-01 
7.565767e-01 
1.170732e+00 
1.142296e+00 
1.113987e+00 
1.085815e+00 
1.057788e+00 
1.029917e+00 
1.002212e+00 
9.746841e-01 
9.473475e-01 
9.202155e-01 
8.933035e-01 
8.666280e-01 
8.402073e-01 
8.140613e-01 
7.882118e-01 
7.626826e-01 
7.375000e-01 
7.126926e-01 
6.882919e-01 
6.643323e-01 
6.408515e-01 
6.178908e-01 
5.954951e-01 
5.737137e-01 
5.525997e-01 
5.322109e-01 
5.126096e-01 
4.938626e-01 
4.760409e-01 
4.592195e-01 
4.434769e-01 
4.288941e-01 
4.155536e-01 
4.035377e-01 
3.929271e-01 
3.837982e-01 
3.762215e-01 
3.702590e-01 
3.659616e-01 
3.633674e-01 
3.625000e-01 
3.633674e-01 
3.659616e-01 
3.702590e-01 
3.762215e-01 
3.837982e-01 
3.929271e-01 
4.035377e-01 
4.155536e-01 
4.288941e-01 
4.434769e-01 
4.592195e-01 
4.760409e-01 
4.938626e-01 
5.126096e-01 
5.322109e-01 
5.525997e-01 
5.737137e-01 
5.954951e-01 
6.178908e-01 
6.408515e-01 
6.643323e-01 
6.882919e-01 
7.126926e-01 
7.375000e-01 
1.158207e+00 
1.129503e+00 
1.100916e+00 
1.072455e+00 
1.044127e+00 
1.015942e+00 
9.879111e-01 
9.600444e-01 
9.323544e-01 
9.048543e-01 
8.775587e-01 
8.504835e-01 
8.236462e-01 
7.970660e-01 
7.707640e-01 
7.447635e-01 
7.190901e-01 
6.937719e-01 
6.688399e-01 
6.443285e-01 
6.202753e-01 
5.967218e-01 
5.737137e-01 
5.513010e-01 
5.295386e-01 
5.084865e-01 
4.882099e-01 
4.687792e-01 
4.502704e-01 
4.327643e-01 
4.163463e-01 
4.011058e-01 
3.871342e-01 
3.745243e-01 
3.633674e-01 
3.537514e-01 
3.457578e-01 
3.394586e-01 
3.349138e-01 
3.321683e-01 
3.312500e-01 
3.321683e-01 
3.349138e-01 
3.394586e-01 
3.457578e-01 
3.537514e-01 
3.633674e-01 
3.745243e-01 
3.871342e-01 
4.011058e-01 
4.163463e-01 
4.327643e-01 
4.502704e-01 
4.687792e-01 
4.882099e-01 
5.084865e-01 
5.295386e-01 
5.513010e-01 
5.737137e-01 
5.967218e-01 
6.202753e-01 
6.443285e-01 
6.688399e-01 
6.937719e-01 
7.190901e-01 
1.146291e+00 
1.117327e+00 
1.088471e+00 
1.059728e+00 
1.031107e+00 
1.002618e+00 
9.742684e-01 
9.460701e-01 
9.180340e-01 
8.901727e-01 
8.625000e-01 
8.350309e-01 
8.077822e-01 
7.807722e-01 
7.540211e-01 
7.275514e-01 
7.013878e-01 
6.755579e-01 
6.500919e-01 
6.250237e-01 
6.003905e-01 
5.762339e-01 
5.525997e-01 
5.295386e-01 
5.071068e-01 
4.853660e-01 
4.643841e-01 
4.442353e-01 
4.250000e-01 
4.067652e-01 
3.896238e-01 
3.736737e-01 
3.590170e-01 
3.457578e-01 
3.340002e-01 
3.238455e-01 
3.153882e-01 
3.087131e-01 
3.038911e-01 
3.009756e-01 
3.000000e-01 
3.009756e-01 
3.038911e-01 
3.087131e-01 
3.153882e-01 
3.238455e-01 
3.340002e-01 
3.457578e-01 
3.590170e-01 
3.736737e-01 
3.896238e-01 
4.067652e-01 
4.250000e-01 
4.442353e-01 
4.643841e-01 
4.853660e-01 
5.071068e-01 
5.295386e-01 
5.525997e-01 
5.762339e-01 
6.003905e-01 
6.250237e-01 
6.500919e-01 
6.755579e-01 
7.013878e-01 
1.135001e+00 
1.105786e+00 
1.076669e+00 
1.047654e+00 
1.018750e+00 
9.899645e-01 
9.613065e-01 
9.327856e-01 
9.044123e-01 
8.761985e-01 
8.481569e-01 
8.203017e-01 
7.926488e-01 
7.652153e-01 
7.380207e-01 
7.110862e-01 
6.844357e-01 
6.580956e-01 
6.320954e-01 
6.064680e-01 
5.812500e-01 
5.564824e-01 
5.322109e-01 
5.084865e-01 
4.853660e-01 
4.629126e-01 
4.411964e-01 
4.202948e-01 
4.002929e-01 
3.812836e-01 
3.633674e-01 
3.466517e-01 
3.312500e-01 
3.172795e-01 
3.048592e-01 
2.941059e-01 
2.851305e-01 
2.780331e-01 
2.728983e-01 
2.697905e-01 
2.687500e-01 
2.697905e-01 
2.728983e-01 
2.780331e-01 
2.851305e-01 
2.941059e-01 
3.048592e-01 
3.172795e-01 
3.312500e-01 
3.466517e-01 
3.633674e-01 
3.812836e-01 
4.002929e-01 
4.202948e-01 
4.411964e-01 
4.629126e-01 
4.853660e-01 
5.084865e-01 
5.322109e-01 
5.564824e-01 
5.812500e-01 
6.064680e-01 
6.320954e-01 
6.580956e-01 
6.844357e-01 
1.124351e+00 
1.094897e+00 
1.065529e+00 
1.036253e+00 
1.007075e+00 
9.780048e-01 
9.490485e-01 
9.202155e-01 
8.915156e-01 
8.629595e-01 
8.345591e-01 
8.063276e-01 
7.782797e-01 
7.504316e-01 
7.228014e-01 
6.954093e-01 
6.682777e-01 
6.414320e-01 
6.149003e-01 
5.887143e-01 
5.629097e-01 
5.375265e-01 
5.126096e-01 
4.882099e-01 
4.643841e-01 
4.411964e-01 
4.187184e-01 
3.970304e-01 
3.762215e-01 
3.563904e-01 
3.376453e-01 
3.201037e-01 
3.038911e-01 
2.891399e-01 
2.759858e-01 
2.645646e-01 
2.550069e-01 
2.474319e-01 
2.419417e-01 
2.386147e-01 
2.375000e-01 
2.386147e-01 
2.419417e-01 
2.474319e-01 
2.550069e-01 
2.645646e-01 
2.759858e-01 
2.891399e-01 
3.038911e-01 
3.201037e-01 
3.376453e-01 
3.563904e-01 
3.762215e-01 
3.970304e-01 
4.187184e-01 
4.411964e-01 
4.643841e-01 
4.882099e-01 
5.126096e-01 
5.375265e-01 
5.629097e-01 
5.887143e-01 
6.149003e-01 
6.414320e-01 
6.682777e-01 
1.114359e+00 
1.084675e+00 
1.055068e+00 
1.025542e+00 
9.961037e-01 
9.667597e-01 
9.375172e-01 
9.083842e-01 
8.793698e-01 
8.504835e-01 
8.217364e-01 
7.931405e-01 
7.647093e-01 
7.364578e-01 
7.084026e-01 
6.805627e-01 
6.529590e-01 
6.256153e-01 
5.985583e-01 
5.718181e-01 
5.454288e-01 
5.194290e-01 
4.938626e-01 
4.687792e-01 
4.442353e-01 
4.202948e-01 
3.970304e-01 
3.745243e-01 
3.528689e-01 
3.321683e-01 
3.125381e-01 
2.941059e-01 
2.770105e-01 
2.614007e-01 
2.474319e-01 
2.352621e-01 
2.250460e-01 
2.169270e-01 
2.110296e-01 
2.074502e-01 
2.062500e-01 
2.074502e-01 
2.110296e-01 
2.169270e-01 
2.250460e-01 
2.352621e-01 
2.474319e-01 
2.614007e-01 
2.770105e-01 
2.941059e-01 
3.125381e-01 
3.321683e-01 
3.528689e-01 
3.745243e-01 
3.970304e-01 
4.202948e-01 
4.442353e-01 
4.687792e-01 
4.938626e-01 
5.194290e-01 
5.454288e-01 
5.718181e-01 
5.985583e-01 
6.256153e-01 
6.529590e-01 
1.105038e+00 
1.075138e+00 
1.045304e+00 
1.015541e+00 
9.858541e-01 
9.562500e-01 
9.267348e-01 
8.973156e-01 
8.680005e-01 
8.387981e-01 
8.097184e-01 
7.807722e-01 
7.519716e-01 
7.233304e-01 
6.948638e-01 
6.665890e-01 
6.385255e-01 
6.106951e-01 
5.831228e-01 
5.558367e-01 
5.288690e-01 
5.022564e-01 
4.760409e-01 
4.502704e-01 
4.250000e-01 
4.002929e-01 
3.762215e-01 
3.528689e-01 
3.303301e-01 
3.087131e-01 
2.881406e-01 
2.687500e-01 
2.506939e-01 
2.341389e-01 
2.192627e-01 
2.062500e-01 
1.952847e-01 
1.865412e-01 
1.801727e-01 
1.762998e-01 
1.750000e-01 
1.762998e-01 
1.801727e-01 
1.865412e-01 
1.952847e-01 
2.062500e-01 
2.192627e-01 
2.341389e-01 
2.506939e-01 
2.687500e-01 
2.881406e-01 
3.087131e-01 
3.303301e-01 
3.528689e-01 
3.762215e-01 
4.002929e-01 
4.250000e-01 
4.502704e-01 
4.760409e-01 
5.022564e-01 
5.288690e-01 
5.558367e-01 
5.831228e-01 
6.106951e-01 
6.385255e-01 
1.096404e+00 
1.066300e+00 
1.036253e+00 
1.006266e+00 
9.763456e-01 
9.464960e-01 
9.167230e-01 
8.870329e-01 
8.574328e-01 
8.279303e-01 
7.985341e-01 
7.692539e-01 
7.401006e-01 
7.110862e-01 
6.822246e-01 
6.535313e-01 
6.250237e-01 
5.967218e-01 
5.686484e-01 
5.408293e-01 
5.132945e-01 
4.860781e-01 
4.592195e-01 
4.327643e-01 
4.067652e-01 
3.812836e-01 
3.563904e-01 
3.321683e-01 
3.087131e-01 
2.861359e-01 
2.645646e-01 
2.441460e-01 
2.250460e-01 
2.074502e-01 
1.915614e-01 
1.775952e-01 
1.657719e-01 
1.563048e-01 
1.493856e-01 
1.451675e-01 
1.437500e-01 
1.451675e-01 
1.493856e-01 
1.563048e-01 
1.657719e-01 
1.775952e-01 
1.915614e-01 
2.074502e-01 
2.250460e-01 
2.441460e-01 
2.645646e-01 
2.861359e-01 
3.087131e-01 
3.321683e-01 
3.563904e-01 
3.812836e-01 
4.067652e-01 
4.327643e-01 