# vtk DataFile Version 2.0 
Quadtree Mesh 
ASCII 
DATASET UNSTRUCTURED_GRID 
POINTS 16641 double 
-1.000000e+00 -1.000000e+00 0.000000e+00
-9.843750e-01 -1.000000e+00 0.000000e+00
-9.687500e-01 -1.000000e+00 0.000000e+00
-9.531250e-01 -1.000000e+00 0.000000e+00
-9.375000e-01 -1.000000e+00 0.000000e+00
-9.218750e-01 -1.000000e+00 0.000000e+00
-9.062500e-01 -1.000000e+00 0.000000e+00
-8.906250e-01 -1.000000e+00 0.000000e+00
-8.750000e-01 -1.000000e+00 0.000000e+00
-8.593750e-01 -1.000000e+00 0.000000e+00
-8.437500e-01 -1.000000e+00 0.000000e+00
-8.281250e-01 -1.000000e+00 0.000000e+00
-8.125000e-01 -1.000000e+00 0.000000e+00
-7.968750e-01 -1.000000e+00 0.000000e+00
-7.812500e-01 -1.000000e+00 0.000000e+00
-7.656250e-01 -1.000000e+00 0.000000e+00
-7.500000e-01 -1.000000e+00 0.000000e+00
-7.343750e-01 -1.000000e+00 0.000000e+00
-7.187500e-01 -1.000000e+00 0.000000e+00
-7.031250e-01 -1.000000e+00 0.000000e+00
-6.875000e-01 -1.000000e+00 0.000000e+00
-6.718750e-01 -1.000000e+00 0.000000e+00
-6.562500e-01 -1.000000e+00 0.000000e+00
-6.406250e-01 -1.000000e+00 0.000000e+00
-6.250000e-01 -1.000000e+00 0.000000e+00
-6.093750e-01 -1.000000e+00 0.000000e+00
-5.937500e-01 -1.000000e+00 0.000000e+00
-5.781250e-01 -1.000000e+00 0.000000e+00
-5.625000e-01 -1.000000e+00 0.000000e+00
-5.468750e-01 -1.000000e+00 0.000000e+00
-5.312500e-01 -1.000000e+00 0.000000e+00
-5.156250e-01 -1.000000e+00 0.000000e+00
-5.000000e-01 -1.000000e+00 0.000000e+00
-4.843750e-01 -1.000000e+00 0.000000e+00
-4.687500e-01 -1.000000e+00 0.000000e+00
-4.531250e-01 -1.000000e+00 0.000000e+00
-4.375000e-01 -1.000000e+00 0.000000e+00
-4.218750e-01 -1.000000e+00 0.000000e+00
-4.062500e-01 -1.000000e+00 0.000000e+00
-3.906250e-01 -1.000000e+00 0.000000e+00
-3.750000e-01 -1.000000e+00 0.000000e+00
-3.593750e-01 -1.000000e+00 0.000000e+00
-3.437500e-01 -1.000000e+00 0.000000e+00
-3.281250e-01 -1.000000e+00 0.000000e+00
-3.125000e-01 -1.000000e+00 0.000000e+00
-2.968750e-01 -1.000000e+00 0.000000e+00
-2.812500e-01 -1.000000e+00 0.000000e+00
-2.656250e-01 -1.000000e+00 0.000000e+00
-2.500000e-01 -1.000000e+00 0.000000e+00
-2.343750e-01 -1.000000e+00 0.000000e+00
-2.187500e-01 -1.000000e+00 0.000000e+00
-2.031250e-01 -1.000000e+00 0.000000e+00
-1.875000e-01 -1.000000e+00 0.000000e+00
-1.718750e-01 -1.000000e+00 0.000000e+00
-1.562500e-01 -1.000000e+00 0.000000e+00
-1.406250e-01 -1.000000e+00 0.000000e+00
-1.250000e-01 -1.000000e+00 0.000000e+00
-1.093750e-01 -1.000000e+00 0.000000e+00
-9.375000e-02 -1.000000e+00 0.000000e+00
-7.812500e-02 -1.000000e+00 0.000000e+00
-6.250000e-02 -1.000000e+00 0.000000e+00
-4.687500e-02 -1.000000e+00 0.000000e+00
-3.125000e-02 -1.000000e+00 0.000000e+00
-1.562500e-02 -1.000000e+00 0.000000e+00
0.000000e+00 -1.000000e+00 0.000000e+00
1.562500e-02 -1.000000e+00 0.000000e+00
3.125000e-02 -1.000000e+00 0.000000e+00
4.687500e-02 -1.000000e+00 0.000000e+00
6.250000e-02 -1.000000e+00 0.000000e+00
7.812500e-02 -1.000000e+00 0.000000e+00
9.375000e-02 -1.000000e+00 0.000000e+00
1.093750e-01 -1.000000e+00 0.000000e+00
1.250000e-01 -1.000000e+00 0.000000e+00
1.406250e-01 -1.000000e+00 0.000000e+00
1.562500e-01 -1.000000e+00 0.000000e+00
1.718750e-01 -1.000000e+00 0.000000e+00
1.875000e-01 -1.000000e+00 0.000000e+00
2.031250e-01 -1.000000e+00 0.000000e+00
2.187500e-01 -1.000000e+00 0.000000e+00
2.343750e-01 -1.000000e+00 0.000000e+00
2.500000e-01 -1.000000e+00 0.000000e+00
2.656250e-01 -1.000000e+00 0.000000e+00
2.812500e-01 -1.000000e+00 0.000000e+00
2.968750e-01 -1.000000e+00 0.000000e+00
3.125000e-01 -1.000000e+00 0.000000e+00
3.281250e-01 -1.000000e+00 0.000000e+00
3.437500e-01 -1.000000e+00 0.000000e+00
3.593750e-01 -1.000000e+00 0.000000e+00
3.750000e-01 -1.000000e+00 0.000000e+00
3.906250e-01 -1.000000e+00 0.000000e+00
4.062500e-01 -1.000000e+00 0.000000e+00
4.218750e-01 -1.000000e+00 0.000000e+00
4.375000e-01 -1.000000e+00 0.000000e+00
4.531250e-01 -1.000000e+00 0.000000e+00
4.687500e-01 -1.000000e+00 0.000000e+00
4.843750e-01 -1.000000e+00 0.000000e+00
5.000000e-01 -1.000000e+00 0.000000e+00
5.156250e-01 -1.000000e+00 0.000000e+00
5.312500e-01 -1.000000e+00 0.000000e+00
5.468750e-01 -1.000000e+00 0.000000e+00
5.625000e-01 -1.000000e+00 0.000000e+00
5.781250e-01 -1.000000e+00 0.000000e+00
5.937500e-01 -1.000000e+00 0.000000e+00
6.093750e-01 -1.000000e+00 0.000000e+00
6.250000e-01 -1.000000e+00 0.000000e+00
6.406250e-01 -1.000000e+00 0.000000e+00
6.562500e-01 -1.000000e+00 0.000000e+00
6.718750e-01 -1.000000e+00 0.000000e+00
6.875000e-01 -1.000000e+00 0.000000e+00
7.031250e-01 -1.000000e+00 0.000000e+00
7.187500e-01 -1.000000e+00 0.000000e+00
7.343750e-01 -1.000000e+00 0.000000e+00
7.500000e-01 -1.000000e+00 0.000000e+00
7.656250e-01 -1.000000e+00 0.000000e+00
7.812500e-01 -1.000000e+00 0.000000e+00
7.968750e-01 -1.000000e+00 0.000000e+00
8.125000e-01 -1.000000e+00 0.000000e+00
8.281250e-01 -1.000000e+00 0.000000e+00
8.437500e-01 -1.000000e+00 0.000000e+00
8.593750e-01 -1.000000e+00 0.000000e+00
8.750000e-01 -1.000000e+00 0.000000e+00
8.906250e-01 -1.000000e+00 0.000000e+00
9.062500e-01 -1.000000e+00 0.000000e+00
9.218750e-01 -1.000000e+00 0.000000e+00
9.375000e-01 -1.000000e+00 0.000000e+00
9.531250e-01 -1.000000e+00 0.000000e+00
9.687500e-01 -1.000000e+00 0.000000e+00
9.843750e-01 -1.000000e+00 0.000000e+00
1.000000e+00 -1.000000e+00 0.000000e+00
-1.000000e+00 -9.843750e-01 0.000000e+00
-9.843750e-01 -9.843750e-01 0.000000e+00
-9.687500e-01 -9.843750e-01 0.000000e+00
-9.531250e-01 -9.843750e-01 0.000000e+00
-9.375000e-01 -9.843750e-01 0.000000e+00
-9.218750e-01 -9.843750e-01 0.000000e+00
-9.062500e-01 -9.843750e-01 0.000000e+00
-8.906250e-01 -9.843750e-01 0.000000e+00
-8.750000e-01 -9.843750e-01 0.000000e+00
-8.593750e-01 -9.843750e-01 0.000000e+00
-8.437500e-01 -9.843750e-01 0.000000e+00
-8.281250e-01 -9.843750e-01 0.000000e+00
-8.125000e-01 -9.843750e-01 0.000000e+00
-7.968750e-01 -9.843750e-01 0.000000e+00
-7.812500e-01 -9.843750e-01 0.000000e+00
-7.656250e-01 -9.843750e-01 0.000000e+00
-7.500000e-01 -9.843750e-01 0.000000e+00
-7.343750e-01 -9.843750e-01 0.000000e+00
-7.187500e-01 -9.843750e-01 0.000000e+00
-7.031250e-01 -9.843750e-01 0.000000e+00
-6.875000e-01 -9.843750e-01 0.000000e+00
-6.718750e-01 -9.843750e-01 0.000000e+00
-6.562500e-01 -9.843750e-01 0.000000e+00
-6.406250e-01 -9.843750e-01 0.000000e+00
-6.250000e-01 -9.843750e-01 0.000000e+00
-6.093750e-01 -9.843750e-01 0.000000e+00
-5.937500e-01 -9.843750e-01 0.000000e+00
-5.781250e-01 -9.843750e-01 0.000000e+00
-5.625000e-01 -9.843750e-01 0.000000e+00
-5.468750e-01 -9.843750e-01 0.000000e+00
-5.312500e-01 -9.843750e-01 0.000000e+00
-5.156250e-01 -9.843750e-01 0.000000e+00
-5.000000e-01 -9.843750e-01 0.000000e+00
-4.843750e-01 -9.843750e-01 0.000000e+00
-4.687500e-01 -9.843750e-01 0.000000e+00
-4.531250e-01 -9.843750e-01 0.000000e+00
-4.375000e-01 -9.843750e-01 0.000000e+00
-4.218750e-01 -9.843750e-01 0.000000e+00
-4.062500e-01 -9.843750e-01 0.000000e+00
-3.906250e-01 -9.843750e-01 0.000000e+00
-3.750000e-01 -9.843750e-01 0.000000e+00
-3.593750e-01 -9.843750e-01 0.000000e+00
-3.437500e-01 -9.843750e-01 0.000000e+00
-3.281250e-01 -9.843750e-01 0.000000e+00
-3.125000e-01 -9.843750e-01 0.000000e+00
-2.968750e-01 -9.843750e-01 0.000000e+00
-2.812500e-01 -9.843750e-01 0.000000e+00
-2.656250e-01 -9.843750e-01 0.000000e+00
-2.500000e-01 -9.843750e-01 0.000000e+00
-2.343750e-01 -9.843750e-01 0.000000e+00
-2.187500e-01 -9.843750e-01 0.000000e+00
-2.031250e-01 -9.843750e-01 0.000000e+00
-1.875000e-01 -9.843750e-01 0.000000e+00
-1.718750e-01 -9.843750e-01 0.000000e+00
-1.562500e-01 -9.843750e-01 0.000000e+00
-1.406250e-01 -9.843750e-01 0.000000e+00
-1.250000e-01 -9.843750e-01 0.000000e+00
-1.093750e-01 -9.843750e-01 0.000000e+00
-9.375000e-02 -9.843750e-01 0.000000e+00
-7.812500e-02 -9.843750e-01 0.000000e+00
-6.250000e-02 -9.843750e-01 0.000000e+00
-4.687500e-02 -9.843750e-01 0.000000e+00
-3.125000e-02 -9.843750e-01 0.000000e+00
-1.562500e-02 -9.843750e-01 0.000000e+00
0.000000e+00 -9.843750e-01 0.000000e+00
1.562500e-02 -9.843750e-01 0.000000e+00
3.125000e-02 -9.843750e-01 0.000000e+00
4.687500e-02 -9.843750e-01 0.000000e+00
6.250000e-02 -9.843750e-01 0.000000e+00
7.812500e-02 -9.843750e-01 0.000000e+00
9.375000e-02 -9.843750e-01 0.000000e+00
1.093750e-01 -9.843750e-01 0.000000e+00
1.250000e-01 -9.843750e-01 0.000000e+00
1.406250e-01 -9.843750e-01 0.000000e+00
1.562500e-01 -9.843750e-01 0.000000e+00
1.718750e-01 -9.843750e-01 0.000000e+00
1.875000e-01 -9.843750e-01 0.000000e+00
2.031250e-01 -9.843750e-01 0.000000e+00
2.187500e-01 -9.843750e-01 0.000000e+00
2.343750e-01 -9.843750e-01 0.000000e+00
2.500000e-01 -9.843750e-01 0.000000e+00
2.656250e-01 -9.843750e-01 0.000000e+00
2.812500e-01 -9.843750e-01 0.000000e+00
2.968750e-01 -9.843750e-01 0.000000e+00
3.125000e-01 -9.843750e-01 0.000000e+00
3.281250e-01 -9.843750e-01 0.000000e+00
3.437500e-01 -9.843750e-01 0.000000e+00
3.593750e-01 -9.843750e-01 0.000000e+00
3.750000e-01 -9.843750e-01 0.000000e+00
3.906250e-01 -9.843750e-01 0.000000e+00
4.062500e-01 -9.843750e-01 0.000000e+00
4.218750e-01 -9.843750e-01 0.000000e+00
4.375000e-01 -9.843750e-01 0.000000e+00
4.531250e-01 -9.843750e-01 0.000000e+00
4.687500e-01 -9.843750e-01 0.000000e+00
4.843750e-01 -9.843750e-01 0.000000e+00
5.000000e-01 -9.843750e-01 0.000000e+00
5.156250e-01 -9.843750e-01 0.000000e+00
5.312500e-01 -9.843750e-01 0.000000e+00
5.468750e-01 -9.843750e-01 0.000000e+00
5.625000e-01 -9.843750e-01 0.000000e+00
5.781250e-01 -9.843750e-01 0.000000e+00
5.937500e-01 -9.843750e-01 0.000000e+00
6.093750e-01 -9.843750e-01 0.000000e+00
6.250000e-01 -9.843750e-01 0.000000e+00
6.406250e-01 -9.843750e-01 0.000000e+00
6.562500e-01 -9.843750e-01 0.000000e+00
6.718750e-01 -9.843750e-01 0.000000e+00
6.875000e-01 -9.843750e-01 0.000000e+00
7.031250e-01 -9.843750e-01 0.000000e+00
7.187500e-01 -9.843750e-01 0.000000e+00
7.343750e-01 -9.843750e-01 0.000000e+00
7.500000e-01 -9.843750e-01 0.000000e+00
7.656250e-01 -9.843750e-01 0.000000e+00
7.812500e-01 -9.843750e-01 0.000000e+00
[...]
POINT_DATA 16641 
SCALARS ini_soln double 1 
LOOKUP_TABLE default 
7.003905e-01 
6.943050e-01 
6.882499e-01 
6.822260e-01 
6.762339e-01 
6.702745e-01 
6.643484e-01 
6.584566e-01 
6.525997e-01 
6.467786e-01 
6.409941e-01 
6.352472e-01 
6.295386e-01 
6.238693e-01 
6.182403e-01 
6.126525e-01 
6.071068e-01 
6.016043e-01 
5.961459e-01 
5.907328e-01 
5.853660e-01 
5.800466e-01 
5.747757e-01 
5.695545e-01 
5.643841e-01 
5.592658e-01 
5.542007e-01 
5.491901e-01 
5.442353e-01 
5.393375e-01 
5.344981e-01 
5.297185e-01 
5.250000e-01 
5.203440e-01 
5.157519e-01 
5.112252e-01 
5.067652e-01 
5.023736e-01 
4.980519e-01 
4.938014e-01 
4.896238e-01 
4.855207e-01 
4.814936e-01 
4.775440e-01 
4.736737e-01 
4.698843e-01 
4.661772e-01 
4.625543e-01 
4.590170e-01 
4.555671e-01 
4.522062e-01 
4.489358e-01 
4.457578e-01 
4.426736e-01 
4.396849e-01 
4.367932e-01 
4.340002e-01 
4.313074e-01 
4.287164e-01 
4.262286e-01 
4.238455e-01 
4.215685e-01 
4.193991e-01 
4.173385e-01 
4.153882e-01 
4.135493e-01 
4.118231e-01 
4.102107e-01 
4.087131e-01 
4.073315e-01 
4.060667e-01 
4.049196e-01 
4.038911e-01 
4.029818e-01 
4.021925e-01 
4.015236e-01 
4.009756e-01 
4.005490e-01 
4.002441e-01 
4.000610e-01 
4.000000e-01 
4.000610e-01 
4.002441e-01 
4.005490e-01 
4.009756e-01 
4.015236e-01 
4.021925e-01 
4.029818e-01 
4.038911e-01 
4.049196e-01 
4.060667e-01 
4.073315e-01 
4.087131e-01 
4.102107e-01 
4.118231e-01 
4.135493e-01 
4.153882e-01 
4.173385e-01 
4.193991e-01 
4.215685e-01 
4.238455e-01 
4.262286e-01 
4.287164e-01 
4.313074e-01 
4.340002e-01 
4.367932e-01 
4.396849e-01 
4.426736e-01 
4.457578e-01 
4.489358e-01 
4.522062e-01 
4.555671e-01 
4.590170e-01 
4.625543e-01 
4.661772e-01 
4.698843e-01 
4.736737e-01 
4.775440e-01 
4.814936e-01 
4.855207e-01 
4.896238e-01 
4.938014e-01 
4.980519e-01 
5.023736e-01 
5.067652e-01 
5.112252e-01 
5.157519e-01 
5.203440e-01 
5.250000e-01 
6.955335e-01 
6.894105e-01 
6.833176e-01 
6.772554e-01 
6.712247e-01 
6.652263e-01 
6.592609e-01 
6.533292e-01 
6.474321e-01 
6.415705e-01 
6.357451e-01 
6.299568e-01 
6.242065e-01 
6.184952e-01 
6.128237e-01 
6.071931e-01 
6.016043e-01 
5.960582e-01 
5.905561e-01 
5.850988e-01 
5.796875e-01 
5.743233e-01 
5.690073e-01 
5.637407e-01 
5.585247e-01 
5.533605e-01 
5.482492e-01 
5.431923e-01 
5.381909e-01 
5.332464e-01 
5.283601e-01 
5.235334e-01 
5.187678e-01 
5.140645e-01 
5.094251e-01 
5.048510e-01 
5.003437e-01 
4.959048e-01 
4.915358e-01 
4.872381e-01 
4.830135e-01 
4.788635e-01 
4.747898e-01 
4.707939e-01 
4.668775e-01 
4.630423e-01 
4.592899e-01 
4.556220e-01 
4.520403e-01 
4.485466e-01 
4.451423e-01 
4.418294e-01 
4.386094e-01 
4.354840e-01 
4.324550e-01 
4.295239e-01 
4.266923e-01 
4.239620e-01 
4.213344e-01 
4.188112e-01 
4.163938e-01 
4.140839e-01 
4.118827e-01 
4.097918e-01 
4.078125e-01 
4.059461e-01 
4.041938e-01 
4.025569e-01 
4.010365e-01 
3.996337e-01 
3.983493e-01 
3.971845e-01 
3.961399e-01 
3.952164e-01 
3.944146e-01 
3.937352e-01 
3.931786e-01 
3.927452e-01 
3.924355e-01 
3.922495e-01 
3.921875e-01 
3.922495e-01 
3.924355e-01 
3.927452e-01 
3.931786e-01 
3.937352e-01 
3.944146e-01 
3.952164e-01 
3.961399e-01 
3.971845e-01 
3.983493e-01 
3.996337e-01 
4.010365e-01 
4.025569e-01 
4.041938e-01 
4.059461e-01 
4.078125e-01 
4.097918e-01 
4.118827e-01 
4.140839e-01 
4.163938e-01 
4.188112e-01 
4.213344e-01 
4.239620e-01 
4.266923e-01 
4.295239e-01 
4.324550e-01 
4.354840e-01 
4.386094e-01 
4.418294e-01 
4.451423e-01 
4.485466e-01 
4.520403e-01 
4.556220e-01 
4.592899e-01 
4.630423e-01 
4.668775e-01 
4.707939e-01 
4.747898e-01 
4.788635e-01 
4.830135e-01 
4.872381e-01 
4.915358e-01 
4.959048e-01 
5.003437e-01 
5.048510e-01 
5.094251e-01 
5.140645e-01 
5.187678e-01 
6.907238e-01 
6.845633e-01 
6.784324e-01 
6.723319e-01 
6.662625e-01 
6.602249e-01 
6.542199e-01 
6.482483e-01 
6.423108e-01 
6.364084e-01 
6.305419e-01 
6.247120e-01 
6.189198e-01 
6.131661e-01 
6.074520e-01 
6.017782e-01 
5.961459e-01 
5.905561e-01 
5.850097e-01 
5.795079e-01 
5.740517e-01 
5.686423e-01 
5.632808e-01 
5.579684e-01 
5.527062e-01 
5.474956e-01 
5.423376e-01 
5.372338e-01 
5.321853e-01 
5.271934e-01 
5.222596e-01 
5.173853e-01 
5.125717e-01 
5.078205e-01 
5.031331e-01 
4.985109e-01 
4.939556e-01 
4.894685e-01 
4.850514e-01 
4.807058e-01 
4.764333e-01 
4.722356e-01 
4.681143e-01 
4.640712e-01 
4.601078e-01 
4.562259e-01 
4.524272e-01 
4.487134e-01 
4.450864e-01 
4.415477e-01 
4.380992e-01 
4.347427e-01 
4.314797e-01 
4.283122e-01 
4.252418e-01 
4.222702e-01 
4.193991e-01 
4.166302e-01 
4.139651e-01 
4.114056e-01 
4.089530e-01 
4.066092e-01 
4.043754e-01 
4.022532e-01 
4.002441e-01 
3.983493e-01 
3.965703e-01 
3.949082e-01 
3.933642e-01 
3.919394e-01 
3.906350e-01 
3.894517e-01 
3.883906e-01 
3.874524e-01 
3.866379e-01 
3.859475e-01 
3.853820e-01 
3.849417e-01 
3.846270e-01 
3.844380e-01 
3.843750e-01 
3.844380e-01 
3.846270e-01 
3.849417e-01 
3.853820e-01 
3.859475e-01 
3.866379e-01 
3.874524e-01 
3.883906e-01 
3.894517e-01 
3.906350e-01 
3.919394e-01 
3.933642e-01 
3.949082e-01 
3.965703e-01 
3.983493e-01 
4.002441e-01 
4.022532e-01 
4.043754e-01 
4.066092e-01 
4.089530e-01 
4.114056e-01 
4.139651e-01 
4.166302e-01 
4.193991e-01 
4.222702e-01 
4.252418e-01 
4.283122e-01 
4.314797e-01 
4.347427e-01 
4.380992e-01 
4.415477e-01 
4.450864e-01 
4.487134e-01 
4.524272e-01 
4.562259e-01 
4.601078e-01 
4.640712e-01 
4.681143e-01 
4.722356e-01 
4.764333e-01 
4.807058e-01 
4.850514e-01 
4.894685e-01 
4.939556e-01 
4.985109e-01 
5.031331e-01 
5.078205e-01 
5.125717e-01 
6.859624e-01 
6.797642e-01 
6.735953e-01 
6.674564e-01 
6.613481e-01 
6.552712e-01 
6.492265e-01 
6.432147e-01 
6.372368e-01 
6.312934e-01 
6.253855e-01 
6.195139e-01 
6.136795e-01 
6.078832e-01 
6.021260e-01 
5.964089e-01 
5.907328e-01 
5.850988e-01 
5.795079e-01 
5.739612e-01 
5.684597e-01 
5.630047e-01 
5.575972e-01 
5.522385e-01 
5.469297e-01 
5.416722e-01 
5.364671e-01 
5.313157e-01 
5.262195e-01 
5.211797e-01 
5.161978e-01 
5.112751e-01 
5.064131e-01 
5.016132e-01 
4.968770e-01 
4.922061e-01 
4.876018e-01 
4.830659e-01 
4.785999e-01 
4.742055e-01 
4.698843e-01 
4.656379e-01 
4.614682e-01 
4.573768e-01 
4.533655e-01 
4.494360e-01 
4.455900e-01 
4.418294e-01 
4.381559e-01 
4.345714e-01 
4.310776e-01 
4.276764e-01 
4.243695e-01 
4.211588e-01 
4.180459e-01 
4.150328e-01 
4.121211e-01 
4.093127e-01 
4.066092e-01 
4.040122e-01 
4.015236e-01 
3.991448e-01 
3.968775e-01 
3.947231e-01 
3.926833e-01 
3.907593e-01 
3.889527e-01 
3.872646e-01 
3.856963e-01 
3.842490e-01 
3.829237e-01 
3.817216e-01 
3.806434e-01 
3.796900e-01 
3.788623e-01 
3.781607e-01 
3.775860e-01 
3.771385e-01 
3.768186e-01 
3.766265e-01 
3.765625e-01 
3.766265e-01 
3.768186e-01 
3.771385e-01 
3.775860e-01 
3.781607e-01 
3.788623e-01 
3.796900e-01 
3.806434e-01 
3.817216e-01 
3.829237e-01 
3.842490e-01 
3.856963e-01 
3.872646e-01 
3.889527e-01 
3.907593e-01 
3.926833e-01 
3.947231e-01 
3.968775e-01 
3.991448e-01 
4.015236e-01 
4.040122e-01 
4.066092e-01 
4.093127e-01 
4.121211e-01 
4.150328e-01 
4.180459e-01 
4.211588e-01 
4.243695e-01 
4.276764e-01 
4.310776e-01 
4.345714e-01 
4.381559e-01 
4.418294e-01 
4.455900e-01 
4.494360e-01 
4.533655e-01 
4.573768e-01 
4.614682e-01 
4.656379e-01 
4.698843e-01 
4.742055e-01 
4.785999e-01 
4.830659e-01 
4.876018e-01 
4.922061e-01 
4.968770e-01 
5.016132e-01 
5.064131e-01 
6.812500e-01 
6.750142e-01 
6.688072e-01 
6.626297e-01 
6.564824e-01 
6.503661e-01 
6.442816e-01 
6.382296e-01 
6.322109e-01 
6.262264e-01 
6.202769e-01 
6.143633e-01 
6.084865e-01 
6.026474e-01 
5.968470e-01 
5.910862e-01 
5.853660e-01 
5.796875e-01 
5.740517e-01 
5.684597e-01 
5.629126e-01 
5.574115e-01 
5.519577e-01 
5.465522e-01 
5.411964e-01 
5.358914e-01 
5.306386e-01 
5.254393e-01 
5.202948e-01 
5.152065e-01 
5.101758e-01 
5.052041e-01 
5.002929e-01 
4.954437e-01 
4.906581e-01 
4.859375e-01 
4.812836e-01 
4.766980e-01 
4.721823e-01 
4.677382e-01 
4.633674e-01 
4.590716e-01 
4.548525e-01 
4.507120e-01 
4.466517e-01 
4.426736e-01 
4.387794e-01 
4.349709e-01 
4.312500e-01 
4.276186e-01 
4.240784e-01 
4.206315e-01 
4.172795e-01 
4.140245e-01 
4.108682e-01 
4.078125e-01 
4.048592e-01 
4.020101e-01 
3.992670e-01 
3.966317e-01 
3.941059e-01 
3.916912e-01 
3.893894e-01 
3.872019e-01 
3.851305e-01 
3.831764e-01 
3.813413e-01 
3.796264e-01 
3.780331e-01 
3.765625e-01 
3.752158e-01 
3.739941e-01 
3.728983e-01 
3.719293e-01 
3.710879e-01 
3.703748e-01 
3.697905e-01 
3.693356e-01 
3.690103e-01 
3.688151e-01 
3.687500e-01 
3.688151e-01 
3.690103e-01 
3.693356e-01 
3.697905e-01 
3.703748e-01 
3.710879e-01 
3.719293e-01 
3.728983e-01 
3.739941e-01 
3.752158e-01 
3.765625e-01 
3.780331e-01 
3.796264e-01 
3.813413e-01 
3.831764e-01 
3.851305e-01 
3.872019e-01 
3.893894e-01 
3.916912e-01 
3.941059e-01 
3.966317e-01 
3.992670e-01 
4.020101e-01 
4.048592e-01 
4.078125e-01 
4.108682e-01 
4.140245e-01 
4.172795e-01 
4.206315e-01 
4.240784e-01 
4.276186e-01 
4.312500e-01 
4.349709e-01 
4.387794e-01 
4.426736e-01 
4.466517e-01 
4.507120e-01 
4.548525e-01 
4.590716e-01 
4.633674e-01 
4.677382e-01 
4.721823e-01 
4.766980e-01 
4.812836e-01 
4.859375e-01 
4.906581e-01 
4.954437e-01 
5.002929e-01 
6.765877e-01 
6.703141e-01 
6.640689e-01 
6.578528e-01 
6.516664e-01 
6.455107e-01 
6.393862e-01 
6.332938e-01 
6.272342e-01 
6.212084e-01 
6.152172e-01 
6.092614e-01 
6.033420e-01 
5.974598e-01 
5.916159e-01 
5.858111e-01 
5.800466e-01 
5.743233e-01 
5.686423e-01 
5.630047e-01 
5.574115e-01 
5.518641e-01 
5.463634e-01 
5.409108e-01 
5.355074e-01 
5.301545e-01 
5.248535e-01 
5.196056e-01 
5.144123e-01 
5.092748e-01 
5.041947e-01 
4.991734e-01 
4.942124e-01 
4.893132e-01 
4.844773e-01 
4.797065e-01 
4.750021e-01 
4.703660e-01 
4.657998e-01 
4.613052e-01 
4.568839e-01 
4.525376e-01 
4.482683e-01 
4.440777e-01 
4.399675e-01 
4.359398e-01 
4.319963e-01 
4.281389e-01 
4.243695e-01 
4.206901e-01 
4.171025e-01 
4.136087e-01 
4.102107e-01 
4.069103e-01 
4.037094e-01 
4.006100e-01 
3.976139e-01 
3.947231e-01 
3.919394e-01 
3.892646e-01 
3.867006e-01 
3.842490e-01 
3.819116e-01 
3.796900e-01 
3.775860e-01 
3.756010e-01 
3.737365e-01 
3.719940e-01 
3.703748e-01 
3.688802e-01 
3.675114e-01 
3.662695e-01 
3.651555e-01 
3.641703e-01 
3.633148e-01 
3.625897e-01 
3.619956e-01 
3.615330e-01 
3.612023e-01 
3.610037e-01 
3.609375e-01 
3.610037e-01 
3.612023e-01 
3.615330e-01 
3.619956e-01 
3.625897e-01 
3.633148e-01 
3.641703e-01 
3.651555e-01 
3.662695e-01 
3.675114e-01 
3.688802e-01 
3.703748e-01 
3.719940e-01 
3.737365e-01 
3.756010e-01 
3.775860e-01 
3.796900e-01 
3.819116e-01 
3.842490e-01 
3.867006e-01 
3.892646e-01 
3.919394e-01 
3.947231e-01 
3.976139e-01 
4.006100e-01 
4.037094e-01 
4.069103e-01 
4.102107e-01 
4.136087e-01 
4.171025e-01 
4.206901e-01 
4.243695e-01 
4.281389e-01 
4.319963e-01 
4.359398e-01 
4.399675e-01 
4.440777e-01 
4.482683e-01 
4.525376e-01 
4.568839e-01 
4.613052e-01 
4.657998e-01 
4.703660e-01 
4.750021e-01 
4.797065e-01 
4.844773e-01 
4.893132e-01 
4.942124e-01 
6.719762e-01 
6.656649e-01 
6.593814e-01 
6.531266e-01 
6.469012e-01 
6.407058e-01 
6.345412e-01 
6.284083e-01 
6.223078e-01 
6.162405e-01 
6.102074e-01 
6.042092e-01 
5.982470e-01 
5.923215e-01 
5.864338e-01 
5.805849e-01 
5.747757e-01 
5.690073e-01 
5.632808e-01 
5.575972e-01 
5.519577e-01 
5.463634e-01 
5.408155e-01 
5.353153e-01 
5.298639e-01 
5.244627e-01 
5.191129e-01 
5.138159e-01 
5.085732e-01 
5.033860e-01 
4.982559e-01 
4.931844e-01 
4.881728e-01 
4.832229e-01 
4.783361e-01 
4.735141e-01 
4.687586e-01 
4.640712e-01 
4.594536e-01 
4.549075e-01 
4.504348e-01 
4.460373e-01 
4.417167e-01 
4.374750e-01 
4.333140e-01 
4.292356e-01 
4.252418e-01 
4.213344e-01 
4.175155e-01 
4.137870e-01 
4.101509e-01 
4.066092e-01 
4.031638e-01 
3.998169e-01 
3.965703e-01 
3.934260e-01 
3.903861e-01 
3.874524e-01 
3.846270e-01 
3.819116e-01 
3.793082e-01 
3.768186e-01 
3.744446e-01 
3.721879e-01 
3.700503e-01 
3.680333e-01 
3.661386e-01 
3.643675e-01 
3.627217e-01 
3.612023e-01 
3.598106e-01 
3.585478e-01 
3.574150e-01 
3.564132e-01 
3.555431e-01 
3.548056e-01 
3.542013e-01 
3.537307e-01 
3.533943e-01 
3.531923e-01 
3.531250e-01 
3.531923e-01 
3.533943e-01 
3.537307e-01 
3.542013e-01 
3.548056e-01 
3.555431e-01 
3.564132e-01 
3.574150e-01 
3.585478e-01 
3.598106e-01 
3.612023e-01 
3.627217e-01 
3.643675e-01 
3.661386e-01 
3.680333e-01 
3.700503e-01 
3.721879e-01 
3.744446e-01 
3.768186e-01 
3.793082e-01 
3.819116e-01 
3.846270e-01 
3.874524e-01 
3.903861e-01 
3.934260e-01 
3.965703e-01 
3.998169e-01 
4.031638e-01 
4.066092e-01 
4.101509e-01 
4.137870e-01 
4.175155e-01 
4.213344e-01 
4.252418e-01 
4.292356e-01 
4.333140e-01 
4.374750e-01 
4.417167e-01 
4.460373e-01 
4.504348e-01 
4.549075e-01 
4.594536e-01 
4.640712e-01 
4.687586e-01 
4.735141e-01 
4.783361e-01 
4.832229e-01 
4.881728e-01 
6.674166e-01 
6.610674e-01 
6.547457e-01 
6.484522e-01 
6.421875e-01 
6.359524e-01 
6.297477e-01 
6.235742e-01 
6.174326e-01 
6.113237e-01 
6.052485e-01 
5.992078e-01 
5.932026e-01 
5.872336e-01 
5.813020e-01 
5.754086e-01 
5.695545e-01 
5.637407e-01 
5.579684e-01 
5.522385e-01 
5.465522e-01 
5.409108e-01 
5.353153e-01 
5.297670e-01 
5.242671e-01 
5.188171e-01 
5.134181e-01 
5.080715e-01 
5.027788e-01 
4.975413e-01 
4.923606e-01 
4.872381e-01 
4.821754e-01 
4.771740e-01 
4.722356e-01 
4.673618e-01 
4.625543e-01 
4.578147e-01 
4.531449e-01 
4.485466e-01 
4.440216e-01 
4.395718e-01 
4.351990e-01 
4.309052e-01 
4.266923e-01 
4.225622e-01 
4.185170e-01 
4.145586e-01 
4.106890e-01 
4.069103e-01 
4.032245e-01 
3.996337e-01 
3.961399e-01 
3.927452e-01 
3.894517e-01 
3.862614e-01 
3.831764e-01 
3.801987e-01 
3.773303e-01 
3.745732e-01 
3.719293e-01 
3.694006e-01 
3.669889e-01 
3.646960e-01 
3.625238e-01 
3.604738e-01 
3.585478e-01 
3.567474e-01 
3.550739e-01 
3.535289e-01 
3.521136e-01 
3.508293e-01 
3.496771e-01 
3.486579e-01 
3.477728e-01 
3.470225e-01 
3.464076e-01 
3.459288e-01 
3.455865e-01 
3.453810e-01 
3.453125e-01 
3.453810e-01 
3.455865e-01 
3.459288e-01 
3.464076e-01 
3.470225e-01 
3.477728e-01 
3.486579e-01 
3.496771e-01 
3.508293e-01 
3.521136e-01 
3.535289e-01 
3.550739e-01 
3.567474e-01 
3.585478e-01 
3.604738e-01 
3.625238e-01 
3.646960e-01 
3.669889e-01 
3.694006e-01 
3.719293e-01 
3.745732e-01 
3.773303e-01 
3.801987e-01 
3.831764e-01 
3.862614e-01 
3.894517e-01 
3.927452e-01 
3.961399e-01 
3.996337e-01 
4.032245e-01 
4.069103e-01 
4.106890e-01 
4.145586e-01 
4.185170e-01 
4.225622e-01 
4.266923e-01 
4.309052e-01 
4.351990e-01 
4.395718e-01 
4.440216e-01 
4.485466e-01 
4.531449e-01 
4.578147e-01 
4.625543e-01 
4.673618e-01 
4.722356e-01 
4.771740e-01 
4.821754e-01 
6.629097e-01 
6.565227e-01 
6.501627e-01 
6.438304e-01 
6.375265e-01 
6.312517e-01 
6.250067e-01 
6.187925e-01 
6.126096e-01 
6.064591e-01 
6.003417e-01 
5.942583e-01 
5.882099e-01 
5.821972e-01 
5.762214e-01 
5.702834e-01 
5.643841e-01 
5.585247e-01 
5.527062e-01 
5.469297e-01 
5.411964e-01 
5.355074e-01 
5.298639e-01 
5.242671e-01 
5.187184e-01 
5.132190e-01 
5.077703e-01 
5.023736e-01 
4.970304e-01 
4.917421e-01 
4.865101e-01 
4.813361e-01 
4.762215e-01 
4.711680e-01 
4.661772e-01 
4.612508e-01 
4.563904e-01 
4.515979e-01 
4.468750e-01 
4.422235e-01 
4.376453e-01 
4.331423e-01 
4.287164e-01 
4.243695e-01 
4.201037e-01 
4.159208e-01 
4.118231e-01 
4.078125e-01 
4.038911e-01 
4.000610e-01 
3.963244e-01 
3.926833e-01 
3.891399e-01 
3.856963e-01 
3.823547e-01 
3.791171e-01 
3.759858e-01 
3.729628e-01 
3.700503e-01 
3.672502e-01 
3.645646e-01 
3.619956e-01 
3.595450e-01 
3.572148e-01 
3.550069e-01 
3.529229e-01 
3.509647e-01 
3.491338e-01 
3.474319e-01 
3.458604e-01 
3.444207e-01 
3.431141e-01 
3.419417e-01 
3.409047e-01 
3.400040e-01 
3.392404e-01 
3.386147e-01 
3.381273e-01 
3.377789e-01 
3.375697e-01 
3.375000e-01 
3.375697e-01 
3.377789e-01 
3.381273e-01 
3.386147e-01 
3.392404e-01 
3.400040e-01 
3.409047e-01 
3.419417e-01 
3.431141e-01 
3.444207e-01 
3.458604e-01 
3.474319e-01 
3.491338e-01 
3.509647e-01 
3.529229e-01 
3.550069e-01 
3.572148e-01 
3.595450e-01 
3.619956e-01 
3.645646e-01 
3.672502e-01 
3.700503e-01 
3.729628e-01 
3.759858e-01 
3.791171e-01 
3.823547e-01 
3.856963e-01 
3.891399e-01 
3.926833e-01 
3.963244e-01 
4.000610e-01 
4.038911e-01 
4.078125e-01 
4.118231e-01 
4.159208e-01 
4.201037e-01 
4.243695e-01 
4.287164e-01 
4.331423e-01 
4.376453e-01 
4.422235e-01 
4.468750e-01 
4.515979e-01 
4.563904e-01 
4.612508e-01 
4.661772e-01 
4.711680e-01 
4.762215e-01 
6.584566e-01 
6.520318e-01 
6.456334e-01 
6.392623e-01 
6.329191e-01 
6.266045e-01 
6.203193e-01 
6.140642e-01 
6.078401e-01 
6.016478e-01 
5.954880e-01 
5.893618e-01 
5.832700e-01 
5.772135e-01 
5.711933e-01 
5.652104e-01 
5.592658e-01 
5.533605e-01 
5.474956e-01 
5.416722e-01 
5.358914e-01 
5.301545e-01 
5.244627e-01 
5.188171e-01 
5.132190e-01 
5.076699e-01 
5.021710e-01 
4.967236e-01 
4.913294e-01 
4.859896e-01 
4.807058e-01 
4.754796e-01 
4.703125e-01 
4.652062e-01 
4.601622e-01 
4.551824e-01 
4.502685e-01 
4.454222e-01 
4.406453e-01 
4.359398e-01 
4.313074e-01 
4.267502e-01 
4.222702e-01 
4.178692e-01 
4.135493e-01 
4.093127e-01 
4.051613e-01 
4.010974e-01 
3.971231e-01 
3.932404e-01 
3.894517e-01 
3.857591e-01 
3.821648e-01 
3.786711e-01 
3.752800e-01 
3.719940e-01 
3.688151e-01 
3.657456e-01 
3.627876e-01 
3.599433e-01 
3.572148e-01 
3.546043e-01 
3.521136e-01 
3.497449e-01 
3.475001e-01 
3.453810e-01 
3.433895e-01 
3.415272e-01 
3.397959e-01 
3.381970e-01 
3.367320e-01 
3.354023e-01 
3.342092e-01 
3.331536e-01 
3.322368e-01 
3.314594e-01 
3.308224e-01 
3.303262e-01 
3.299715e-01 
3.297585e-01 
3.296875e-01 
3.297585e-01 
3.299715e-01 
3.303262e-01 
3.308224e-01 
3.314594e-01 
3.322368e-01 
3.331536e-01 
3.342092e-01 
3.354023e-01 
3.367320e-01 
3.381970e-01 
3.397959e-01 
3.415272e-01 
3.433895e-01 
3.453810e-01 
3.475001e-01 
3.497449e-01 
3.521136e-01 
3.546043e-01 
3.572148e-01 
3.599433e-01 
3.627876e-01 
3.657456e-01 
3.688151e-01 
3.719940e-01 
3.752800e-01 
3.786711e-01 
3.821648e-01 
3.857591e-01 
3.894517e-01 
3.932404e-01 
3.971231e-01 
4.010974e-01 
4.051613e-01 
4.093127e-01 
4.135493e-01 
4.178692e-01 
4.222702e-01 
4.267502e-01 
4.313074e-01 
4.359398e-01 
4.406453e-01 
4.454222e-01 
4.502685e-01 
4.551824e-01 
4.601622e-01 
4.652062e-01 
4.703125e-01 
6.540580e-01 
6.475954e-01 
6.411588e-01 
6.347489e-01 
6.283664e-01 
6.220120e-01 
6.156864e-01 
6.093905e-01 
6.031250e-01 
5.968908e-01 
5.906886e-01 
5.845195e-01 
5.783842e-01 
5.722837e-01 
5.662189e-01 
5.601909e-01 
5.542007e-01 
5.482492e-01 
5.423376e-01 
5.364671e-01 
5.306386e-01 
5.248535e-01 
5.191129e-01 
5.134181e-01 
5.077703e-01 
5.021710e-01 
4.966213e-01 
4.911229e-01 
4.856770e-01 
4.802852e-01 
4.749490e-01 
4.696700e-01 
4.644497e-01 
4.592899e-01 
4.541921e-01 
4.491582e-01 
4.441898e-01 
4.392889e-01 
4.344572e-01 
4.296967e-01 
4.250093e-01 
4.203970e-01 
4.158617e-01 
4.114056e-01 
4.070306e-01 
4.027391e-01 
3.985330e-01 
3.944146e-01 
3.903861e-01 
3.864497e-01 
3.826077e-01 
3.788623e-01 
3.752158e-01 
3.716706e-01 
3.682289e-01 
3.648930e-01 
3.616652e-01 
3.585478e-01 
3.555431e-01 
3.526533e-01 
3.498806e-01 
3.472272e-01 
3.446953e-01 
3.422869e-01 
3.400040e-01 
3.378486e-01 
3.358227e-01 
3.339279e-01 
3.321661e-01 
3.305389e-01 
3.290478e-01 
3.276942e-01 
3.264795e-01 
3.254048e-01 
3.244712e-01 
3.236796e-01 
3.230308e-01 
3.225255e-01 
3.221643e-01 
3.219473e-01 
3.218750e-01 
3.219473e-01 
3.221643e-01 
3.225255e-01 
3.230308e-01 
3.236796e-01 
3.244712e-01 
3.254048e-01 
3.264795e-01 
3.276942e-01 
3.290478e-01 
3.305389e-01 
3.321661e-01 
3.339279e-01 
3.358227e-01 
3.378486e-01 
3.400040e-01 
3.422869e-01 
3.446953e-01 
3.472272e-01 
3.498806e-01 
3.526533e-01 
3.555431e-01 
3.585478e-01 
3.616652e-01 
3.648930e-01 
3.682289e-01 
3.716706e-01 
3.752158e-01 
3.788623e-01 
3.826077e-01 
3.864497e-01 
3.903861e-01 
3.944146e-01 
3.985330e-01 
4.027391e-01 
4.070306e-01 
4.114056e-01 
4.158617e-01 
4.203970e-01 
4.250093e-01 
4.296967e-01 
4.344572e-01 
4.392889e-01 
4.441898e-01 
4.491582e-01 
4.541921e-01 
4.592899e-01 
4.644497e-01 
6.497151e-01 
6.432147e-01 
6.367399e-01 
6.302912e-01 