# vtk DataFile Version 2.0 
Quadtree Mesh 
ASCII 
DATASET UNSTRUCTURED_GRID 
POINTS 16641 double 
-1.000000e+00 -1.000000e+00 0.000000e+00
-9.843750e-01 -1.000000e+00 0.000000e+00
-9.687500e-01 -1.000000e+00 0.000000e+00
-9.531250e-01 -1.000000e+00 0.000000e+00
-9.375000e-01 -1.000000e+00 0.000000e+00
-9.218750e-01 -1.000000e+00 0.000000e+00
-9.062500e-01 -1.000000e+00 0.000000e+00
-8.906250e-01 -1.000000e+00 0.000000e+00
-8.750000e-01 -1.000000e+00 0.000000e+00
-8.593750e-01 -1.000000e+00 0.000000e+00
-8.437500e-01 -1.000000e+00 0.000000e+00
-8.281250e-01 -1.000000e+00 0.000000e+00
-8.125000e-01 -1.000000e+00 0.000000e+00
-7.968750e-01 -1.000000e+00 0.000000e+00
-7.812500e-01 -1.000000e+00 0.000000e+00
-7.656250e-01 -1.000000e+00 0.000000e+00
-7.500000e-01 -1.000000e+00 0.000000e+00
-7.343750e-01 -1.000000e+00 0.000000e+00
-7.187500e-01 -1.000000e+00 0.000000e+00
-7.031250e-01 -1.000000e+00 0.000000e+00
-6.875000e-01 -1.000000e+00 0.000000e+00
-6.718750e-01 -1.000000e+00 0.000000e+00
-6.562500e-01 -1.000000e+00 0.000000e+00
-6.406250e-01 -1.000000e+00 0.000000e+00
-6.250000e-01 -1.000000e+00 0.000000e+00
-6.093750e-01 -1.000000e+00 0.000000e+00
-5.937500e-01 -1.000000e+00 0.000000e+00
-5.781250e-01 -1.000000e+00 0.000000e+00
-5.625000e-01 -1.000000e+00 0.000000e+00
-5.468750e-01 -1.000000e+00 0.000000e+00
-5.312500e-01 -1.000000e+00 0.000000e+00
-5.156250e-01 -1.000000e+00 0.000000e+00
-5.000000e-01 -1.000000e+00 0.000000e+00
-4.843750e-01 -1.000000e+00 0.000000e+00
-4.687500e-01 -1.000000e+00 0.000000e+00
-4.531250e-01 -1.000000e+00 0.000000e+00
-4.375000e-01 -1.000000e+00 0.000000e+00
-4.218750e-01 -1.000000e+00 0.000000e+00
-4.062500e-01 -1.000000e+00 0.000000e+00
-3.906250e-01 -1.000000e+00 0.000000e+00
-3.750000e-01 -1.000000e+00 0.000000e+00
-3.593750e-01 -1.000000e+00 0.000000e+00
-3.437500e-01 -1.000000e+00 0.000000e+00
-3.281250e-01 -1.000000e+00 0.000000e+00
-3.125000e-01 -1.000000e+00 0.000000e+00
-2.968750e-01 -1.000000e+00 0.000000e+00
-2.812500e-01 -1.000000e+00 0.000000e+00
-2.656250e-01 -1.000000e+00 0.000000e+00
-2.500000e-01 -1.000000e+00 0.000000e+00
-2.343750e-01 -1.000000e+00 0.000000e+00
-2.187500e-01 -1.000000e+00 0.000000e+00
-2.031250e-01 -1.000000e+00 0.000000e+00
-1.875000e-01 -1.000000e+00 0.000000e+00
-1.718750e-01 -1.000000e+00 0.000000e+00
-1.562500e-01 -1.000000e+00 0.000000e+00
-1.406250e-01 -1.000000e+00 0.000000e+00
-1.250000e-01 -1.000000e+00 0.000000e+00
-1.093750e-01 -1.000000e+00 0.000000e+00
-9.375000e-02 -1.000000e+00 0.000000e+00
-7.812500e-02 -1.000000e+00 0.000000e+00
-6.250000e-02 -1.000000e+00 0.000000e+00
-4.687500e-02 -1.000000e+00 0.000000e+00
-3.125000e-02 -1.000000e+00 0.000000e+00
-1.562500e-02 -1.000000e+00 0.000000e+00
0.000000e+00 -1.000000e+00 0.000000e+00
1.562500e-02 -1.000000e+00 0.000000e+00
3.125000e-02 -1.000000e+00 0.000000e+00
4.687500e-02 -1.000000e+00 0.000000e+00
6.250000e-02 -1.000000e+00 0.000000e+00
7.812500e-02 -1.000000e+00 0.000000e+00
9.375000e-02 -1.000000e+00 0.000000e+00
1.093750e-01 -1.000000e+00 0.000000e+00
1.250000e-01 -1.000000e+00 0.000000e+00
1.406250e-01 -1.000000e+00 0.000000e+00
1.562500e-01 -1.000000e+00 0.000000e+00
1.718750e-01 -1.000000e+00 0.000000e+00
1.875000e-01 -1.000000e+00 0.000000e+00
2.031250e-01 -1.000000e+00 0.000000e+00
2.187500e-01 -1.000000e+00 0.000000e+00
2.343750e-01 -1.000000e+00 0.000000e+00
2.500000e-01 -1.000000e+00 0.000000e+00
2.656250e-01 -1.000000e+00 0.000000e+00
2.812500e-01 -1.000000e+00 0.000000e+00
2.968750e-01 -1.000000e+00 0.000000e+00
3.125000e-01 -1.000000e+00 0.000000e+00
3.281250e-01 -1.000000e+00 0.000000e+00
3.437500e-01 -1.000000e+00 0.000000e+00
3.593750e-01 -1.000000e+00 0.000000e+00
3.750000e-01 -1.000000e+00 0.000000e+00
3.906250e-01 -1.000000e+00 0.000000e+00
4.062500e-01 -1.000000e+00 0.000000e+00
4.218750e-01 -1.000000e+00 0.000000e+00
4.375000e-01 -1.000000e+00 0.000000e+00
4.531250e-01 -1.000000e+00 0.000000e+00
4.687500e-01 -1.000000e+00 0.000000e+00
4.843750e-01 -1.000000e+00 0.000000e+00
5.000000e-01 -1.000000e+00 0.000000e+00
5.156250e-01 -1.000000e+00 0.000000e+00
5.312500e-01 -1.000000e+00 0.000000e+00
5.468750e-01 -1.000000e+00 0.000000e+00
5.625000e-01 -1.000000e+00 0.000000e+00
5.781250e-01 -1.000000e+00 0.000000e+00
5.937500e-01 -1.000000e+00 0.000000e+00
6.093750e-01 -1.000000e+00 0.000000e+00
6.250000e-01 -1.000000e+00 0.000000e+00
6.406250e-01 -1.000000e+00 0.000000e+00
6.562500e-01 -1.000000e+00 0.000000e+00
6.718750e-01 -1.000000e+00 0.000000e+00
6.875000e-01 -1.000000e+00 0.000000e+00
7.031250e-01 -1.000000e+00 0.000000e+00
7.187500e-01 -1.000000e+00 0.000000e+00
7.343750e-01 -1.000000e+00 0.000000e+00
7.500000e-01 -1.000000e+00 0.000000e+00
7.656250e-01 -1.000000e+00 0.000000e+00
7.812500e-01 -1.000000e+00 0.000000e+00
7.968750e-01 -1.000000e+00 0.000000e+00
8.125000e-01 -1.000000e+00 0.000000e+00
8.281250e-01 -1.000000e+00 0.000000e+00
8.437500e-01 -1.000000e+00 0.000000e+00
8.593750e-01 -1.000000e+00 0.000000e+00
8.750000e-01 -1.000000e+00 0.000000e+00
8.906250e-01 -1.000000e+00 0.000000e+00
9.062500e-01 -1.000000e+00 0.000000e+00
9.218750e-01 -1.000000e+00 0.000000e+00
9.375000e-01 -1.000000e+00 0.000000e+00
9.531250e-01 -1.000000e+00 0.000000e+00
9.687500e-01 -1.000000e+00 0.000000e+00
9.843750e-01 -1.000000e+00 0.000000e+00
1.000000e+00 -1.000000e+00 0.000000e+00
-1.000000e+00 -9.843750e-01 0.000000e+00
-9.843750e-01 -9.843750e-01 0.000000e+00
-9.687500e-01 -9.843750e-01 0.000000e+00
-9.531250e-01 -9.843750e-01 0.000000e+00
-9.375000e-01 -9.843750e-01 0.000000e+00
-9.218750e-01 -9.843750e-01 0.000000e+00
-9.062500e-01 -9.843750e-01 0.000000e+00
-8.906250e-01 -9.843750e-01 0.000000e+00
-8.750000e-01 -9.843750e-01 0.000000e+00
-8.593750e-01 -9.843750e-01 0.000000e+00
-8.437500e-01 -9.843750e-01 0.000000e+00
-8.281250e-01 -9.843750e-01 0.000000e+00
-8.125000e-01 -9.843750e-01 0.000000e+00
-7.968750e-01 -9.843750e-01 0.000000e+00
-7.812500e-01 -9.843750e-01 0.000000e+00
-7.656250e-01 -9.843750e-01 0.000000e+00
-7.500000e-01 -9.843750e-01 0.000000e+00
-7.343750e-01 -9.843750e-01 0.000000e+00
-7.187500e-01 -9.843750e-01 0.000000e+00
-7.031250e-01 -9.843750e-01 0.000000e+00
-6.875000e-01 -9.843750e-01 0.000000e+00
-6.718750e-01 -9.843750e-01 0.000000e+00
-6.562500e-01 -9.843750e-01 0.000000e+00
-6.406250e-01 -9.843750e-01 0.000000e+00
-6.250000e-01 -9.843750e-01 0.000000e+00
-6.093750e-01 -9.843750e-01 0.000000e+00
-5.937500e-01 -9.843750e-01 0.000000e+00
-5.781250e-01 -9.843750e-01 0.000000e+00
-5.625000e-01 -9.843750e-01 0.000000e+00
-5.468750e-01 -9.843750e-01 0.000000e+00
-5.312500e-01 -9.843750e-01 0.000000e+00
-5.156250e-01 -9.843750e-01 0.000000e+00
-5.000000e-01 -9.843750e-01 0.000000e+00
-4.843750e-01 -9.843750e-01 0.000000e+00
-4.687500e-01 -9.843750e-01 0.000000e+00
-4.531250e-01 -9.843750e-01 0.000000e+00
-4.375000e-01 -9.843750e-01 0.000000e+00
-4.218750e-01 -9.843750e-01 0.000000e+00
-4.062500e-01 -9.843750e-01 0.000000e+00
-3.906250e-01 -9.843750e-01 0.000000e+00
-3.750000e-01 -9.843750e-01 0.000000e+00
-3.593750e-01 -9.843750e-01 0.000000e+00
-3.437500e-01 -9.843750e-01 0.000000e+00
-3.281250e-01 -9.843750e-01 0.000000e+00
-3.125000e-01 -9.843750e-01 0.000000e+00
-2.968750e-01 -9.843750e-01 0.000000e+00
-2.812500e-01 -9.843750e-01 0.000000e+00
-2.656250e-01 -9.843750e-01 0.000000e+00
-2.500000e-01 -9.843750e-01 0.000000e+00
-2.343750e-01 -9.843750e-01 0.000000e+00
-2.187500e-01 -9.843750e-01 0.000000e+00
-2.031250e-01 -9.843750e-01 0.000000e+00
-1.875000e-01 -9.843750e-01 0.000000e+00
-1.718750e-01 -9.843750e-01 0.000000e+00
-1.562500e-01 -9.843750e-01 0.000000e+00
-1.406250e-01 -9.843750e-01 0.000000e+00
-1.250000e-01 -9.843750e-01 0.000000e+00
-1.093750e-01 -9.843750e-01 0.000000e+00
-9.375000e-02 -9.843750e-01 0.000000e+00
-7.812500e-02 -9.843750e-01 0.000000e+00
-6.250000e-02 -9.843750e-01 0.000000e+00
-4.687500e-02 -9.843750e-01 0.000000e+00
-3.125000e-02 -9.843750e-01 0.000000e+00
-1.562500e-02 -9.843750e-01 0.000000e+00
0.000000e+00 -9.843750e-01 0.000000e+00
1.562500e-02 -9.843750e-01 0.000000e+00
3.125000e-02 -9.843750e-01 0.000000e+00
4.687500e-02 -9.843750e-01 0.000000e+00
6.250000e-02 -9.843750e-01 0.000000e+00
7.812500e-02 -9.843750e-01 0.000000e+00
9.375000e-02 -9.843750e-01 0.000000e+00
1.093750e-01 -9.843750e-01 0.000000e+00
1.250000e-01 -9.843750e-01 0.000000e+00
1.406250e-01 -9.843750e-01 0.000000e+00
1.562500e-01 -9.843750e-01 0.000000e+00
1.718750e-01 -9.843750e-01 0.000000e+00
1.875000e-01 -9.843750e-01 0.000000e+00
2.031250e-01 -9.843750e-01 0.000000e+00
2.187500e-01 -9.843750e-01 0.000000e+00
2.343750e-01 -9.843750e-01 0.000000e+00
2.500000e-01 -9.843750e-01 0.000000e+00
2.656250e-01 -9.843750e-01 0.000000e+00
2.812500e-01 -9.843750e-01 0.000000e+00
2.968750e-01 -9.843750e-01 0.000000e+00
3.125000e-01 -9.843750e-01 0.000000e+00
3.281250e-01 -9.843750e-01 0.000000e+00
3.437500e-01 -9.843750e-01 0.000000e+00
3.593750e-01 -9.843750e-01 0.000000e+00
3.750000e-01 -9.843750e-01 0.000000e+00
3.906250e-01 -9.843750e-01 0.000000e+00
4.062500e-01 -9.843750e-01 0.000000e+00
4.218750e-01 -9.843750e-01 0.000000e+00
4.375000e-01 -9.843750e-01 0.000000e+00
4.531250e-01 -9.843750e-01 0.000000e+00
4.687500e-01 -9.843750e-01 0.000000e+00
4.843750e-01 -9.843750e-01 0.000000e+00
5.000000e-01 -9.843750e-01 0.000000e+00
5.156250e-01 -9.843750e-01 0.000000e+00
5.312500e-01 -9.843750e-01 0.000000e+00
5.468750e-01 -9.843750e-01 0.000000e+00
5.625000e-01 -9.843750e-01 0.000000e+00
5.781250e-01 -9.843750e-01 0.000000e+00
5.937500e-01 -9.843750e-01 0.000000e+00
6.093750e-01 -9.843750e-01 0.000000e+00
6.250000e-01 -9.843750e-01 0.000000e+00
6.406250e-01 -9.843750e-01 0.000000e+00
6.562500e-01 -9.843750e-01 0.000000e+00
6.718750e-01 -9.843750e-01 0.000000e+00
6.875000e-01 -9.843750e-01 0.000000e+00
7.031250e-01 -9.843750e-01 0.000000e+00
7.187500e-01 -9.843750e-01 0.000000e+00
7.343750e-01 -9.843750e-01 0.000000e+00
7.500000e-01 -9.843750e-01 0.000000e+00
7.656250e-01 -9.843750e-01 0.000000e+00
7.812500e-01 -9.843750e-01 0.000000e+00
[...]
POINT_DATA 16641 
SCALARS ini_soln double 1 
LOOKUP_TABLE default 
1.400781e+00 
1.388610e+00 
1.376500e+00 
1.364452e+00 
1.352468e+00 
1.340549e+00 
1.328697e+00 
1.316913e+00 
1.305199e+00 
1.293557e+00 
1.281988e+00 
1.270494e+00 
1.259077e+00 
1.247739e+00 
1.236481e+00 
1.225305e+00 
1.214214e+00 
1.203209e+00 
1.192292e+00 
1.181466e+00 
1.170732e+00 
1.160093e+00 
1.149551e+00 
1.139109e+00 
1.128768e+00 
1.118532e+00 
1.108401e+00 
1.098380e+00 
1.088471e+00 
1.078675e+00 
1.068996e+00 
1.059437e+00 
1.050000e+00 
1.040688e+00 
1.031504e+00 
1.022450e+00 
1.013530e+00 
1.004747e+00 
9.961037e-01 
9.876028e-01 
9.792476e-01 
9.710414e-01 
9.629871e-01 
9.550881e-01 
9.473475e-01 
9.397685e-01 
9.323544e-01 
9.251085e-01 
9.180340e-01 
9.111342e-01 
9.044123e-01 
8.978717e-01 
8.915156e-01 
8.853472e-01 
8.793698e-01 
8.735865e-01 
8.680005e-01 
8.626149e-01 
8.574328e-01 
8.524571e-01 
8.476909e-01 
8.431370e-01 
8.387981e-01 
8.346771e-01 
8.307764e-01 
8.270987e-01 
8.236462e-01 
8.204214e-01 
8.174263e-01 
8.146630e-01 
8.121334e-01 
8.098393e-01 
8.077822e-01 
8.059637e-01 
8.043849e-01 
8.030471e-01 
8.019512e-01 
8.010980e-01 
8.004882e-01 
8.001221e-01 
8.000000e-01 
8.001221e-01 
8.004882e-01 
8.010980e-01 
8.019512e-01 
8.030471e-01 
8.043849e-01 
8.059637e-01 
8.077822e-01 
8.098393e-01 
8.121334e-01 
8.146630e-01 
8.174263e-01 
8.204214e-01 
8.236462e-01 
8.270987e-01 
8.307764e-01 
8.346771e-01 
8.387981e-01 
8.431370e-01 
8.476909e-01 
8.524571e-01 
8.574328e-01 
8.626149e-01 
8.680005e-01 
8.735865e-01 
8.793698e-01 
8.853472e-01 
8.915156e-01 
8.978717e-01 
9.044123e-01 
9.111342e-01 
9.180340e-01 
9.251085e-01 
9.323544e-01 
9.397685e-01 
9.473475e-01 
9.550881e-01 
9.629871e-01 
9.710414e-01 
9.792476e-01 
9.876028e-01 
9.961037e-01 
1.004747e+00 
1.013530e+00 
1.022450e+00 
1.031504e+00 
1.040688e+00 
1.050000e+00 
1.391067e+00 
1.378821e+00 
1.366635e+00 
1.354511e+00 
1.342449e+00 
1.330453e+00 
1.318522e+00 
1.306658e+00 
1.294864e+00 
1.283141e+00 
1.271490e+00 
1.259914e+00 
1.248413e+00 
1.236990e+00 
1.225647e+00 
1.214386e+00 
1.203209e+00 
1.192116e+00 
1.181112e+00 
1.170198e+00 
1.159375e+00 
1.148647e+00 
1.138015e+00 
1.127481e+00 
1.117049e+00 
1.106721e+00 
1.096498e+00 
1.086385e+00 
1.076382e+00 
1.066493e+00 
1.056720e+00 
1.047067e+00 
1.037536e+00 
1.028129e+00 
1.018850e+00 
1.009702e+00 
1.000687e+00 
9.918096e-01 
9.830715e-01 
9.744763e-01 
9.660271e-01 
9.577271e-01 
9.495796e-01 
9.415878e-01 
9.337550e-01 
9.260845e-01 
9.185798e-01 
9.112440e-01 
9.040807e-01 
8.970931e-01 
8.902847e-01 
8.836588e-01 
8.772188e-01 
8.709681e-01 
8.649100e-01 
8.590477e-01 
8.533846e-01 
8.479239e-01 
8.426688e-01 
8.376224e-01 
8.327877e-01 
8.281677e-01 
8.237655e-01 
8.195836e-01 
8.156250e-01 
8.118922e-01 
8.083877e-01 
8.051139e-01 
8.020730e-01 
7.992673e-01 
7.966987e-01 
7.943689e-01 
7.922798e-01 
7.904327e-01 
7.888292e-01 
7.874703e-01 
7.863571e-01 
7.854904e-01 
7.848709e-01 
7.844990e-01 
7.843750e-01 
7.844990e-01 
7.848709e-01 
7.854904e-01 
7.863571e-01 
7.874703e-01 
7.888292e-01 
7.904327e-01 
7.922798e-01 
7.943689e-01 
7.966987e-01 
7.992673e-01 
8.020730e-01 
8.051139e-01 
8.083877e-01 
8.118922e-01 
8.156250e-01 
8.195836e-01 
8.237655e-01 
8.281677e-01 
8.327877e-01 
8.376224e-01 
8.426688e-01 
8.479239e-01 
8.533846e-01 
8.590477e-01 
8.649100e-01 
8.709681e-01 
8.772188e-01 
8.836588e-01 
8.902847e-01 
8.970931e-01 
9.040807e-01 
9.112440e-01 
9.185798e-01 
9.260845e-01 
9.337550e-01 
9.415878e-01 
9.495796e-01 
9.577271e-01 
9.660271e-01 
9.744763e-01 
9.830715e-01 
9.918096e-01 
1.000687e+00 
1.009702e+00 
1.018850e+00 
1.028129e+00 
1.037536e+00 
1.381448e+00 
1.369127e+00 
1.356865e+00 
1.344664e+00 
1.332525e+00 
1.320450e+00 
1.308440e+00 
1.296497e+00 
1.284622e+00 
1.272817e+00 
1.261084e+00 
1.249424e+00 
1.237840e+00 
1.226332e+00 
1.214904e+00 
1.203556e+00 
1.192292e+00 
1.181112e+00 
1.170019e+00 
1.159016e+00 
1.148103e+00 
1.137285e+00 
1.126562e+00 
1.115937e+00 
1.105412e+00 
1.094991e+00 
1.084675e+00 
1.074468e+00 
1.064371e+00 
1.054387e+00 
1.044519e+00 
1.034771e+00 
1.025143e+00 
1.015641e+00 
1.006266e+00 
9.970219e-01 
9.879111e-01 
9.789371e-01 
9.701028e-01 
9.614116e-01 
9.528667e-01 
9.444713e-01 
9.362287e-01 
9.281423e-01 
9.202155e-01 
9.124517e-01 
9.048543e-01 
8.974269e-01 
8.901727e-01 
8.830954e-01 
8.761985e-01 
8.694853e-01 
8.629595e-01 
8.566244e-01 
8.504835e-01 
8.445403e-01 
8.387981e-01 
8.332604e-01 
8.279303e-01 
8.228111e-01 
8.179061e-01 
8.132183e-01 
8.087508e-01 
8.045064e-01 
8.004882e-01 
7.966987e-01 
7.931405e-01 
7.898163e-01 
7.867283e-01 
7.838788e-01 
7.812699e-01 
7.789034e-01 
7.767812e-01 
7.749048e-01 
7.732757e-01 
7.718951e-01 
7.707640e-01 
7.698834e-01 
7.692539e-01 
7.688760e-01 
7.687500e-01 
7.688760e-01 
7.692539e-01 
7.698834e-01 
7.707640e-01 
7.718951e-01 
7.732757e-01 
7.749048e-01 
7.767812e-01 
7.789034e-01 
7.812699e-01 
7.838788e-01 
7.867283e-01 
7.898163e-01 
7.931405e-01 
7.966987e-01 
8.004882e-01 
8.045064e-01 
8.087508e-01 
8.132183e-01 
8.179061e-01 
8.228111e-01 
8.279303e-01 
8.332604e-01 
8.387981e-01 
8.445403e-01 
8.504835e-01 
8.566244e-01 
8.629595e-01 
8.694853e-01 
8.761985e-01 
8.830954e-01 
8.901727e-01 
8.974269e-01 
9.048543e-01 
9.124517e-01 
9.202155e-01 
9.281423e-01 
9.362287e-01 
9.444713e-01 
9.528667e-01 
9.614116e-01 
9.701028e-01 
9.789371e-01 
9.879111e-01 
9.970219e-01 
1.006266e+00 
1.015641e+00 
1.025143e+00 
1.371925e+00 
1.359528e+00 
1.347191e+00 
1.334913e+00 
1.322696e+00 
1.310542e+00 
1.298453e+00 
1.286429e+00 
1.274474e+00 
1.262587e+00 
1.250771e+00 
1.239028e+00 
1.227359e+00 
1.215766e+00 
1.204252e+00 
1.192818e+00 
1.181466e+00 
1.170198e+00 
1.159016e+00 
1.147922e+00 
1.136919e+00 
1.126009e+00 
1.115194e+00 
1.104477e+00 
1.093859e+00 
1.083344e+00 
1.072934e+00 
1.062631e+00 
1.052439e+00 
1.042359e+00 
1.032396e+00 
1.022550e+00 
1.012826e+00 
1.003226e+00 
9.937541e-01 
9.844121e-01 
9.752036e-01 
9.661318e-01 
9.571998e-01 
9.484109e-01 
9.397685e-01 
9.312759e-01 
9.229365e-01 
9.147537e-01 
9.067310e-01 
8.988719e-01 
8.911800e-01 
8.836588e-01 
8.763119e-01 
8.691428e-01 
8.621553e-01 
8.553528e-01 
8.487390e-01 
8.423175e-01 
8.360919e-01 
8.300656e-01 
8.242423e-01 
8.186254e-01 
8.132183e-01 
8.080244e-01 
8.030471e-01 
7.982896e-01 
7.937549e-01 
7.894463e-01 
7.853666e-01 
7.815187e-01 
7.779053e-01 
7.745291e-01 
7.713926e-01 
7.684980e-01 
7.658475e-01 
7.634431e-01 
7.612868e-01 
7.593801e-01 
7.577246e-01 
7.563215e-01 
7.551720e-01 
7.542770e-01 
7.536372e-01 
7.532531e-01 
7.531250e-01 
7.532531e-01 
7.536372e-01 
7.542770e-01 
7.551720e-01 
7.563215e-01 
7.577246e-01 
7.593801e-01 
7.612868e-01 
7.634431e-01 
7.658475e-01 
7.684980e-01 
7.713926e-01 
7.745291e-01 
7.779053e-01 
7.815187e-01 
7.853666e-01 
7.894463e-01 
7.937549e-01 
7.982896e-01 
8.030471e-01 
8.080244e-01 
8.132183e-01 
8.186254e-01 
8.242423e-01 
8.300656e-01 
8.360919e-01 
8.423175e-01 
8.487390e-01 
8.553528e-01 
8.621553e-01 
8.691428e-01 
8.763119e-01 
8.836588e-01 
8.911800e-01 
8.988719e-01 
9.067310e-01 
9.147537e-01 
9.229365e-01 
9.312759e-01 
9.397685e-01 
9.484109e-01 
9.571998e-01 
9.661318e-01 
9.752036e-01 
9.844121e-01 
9.937541e-01 
1.003226e+00 
1.012826e+00 
1.362500e+00 
1.350028e+00 
1.337614e+00 
1.325259e+00 
1.312965e+00 
1.300732e+00 
1.288563e+00 
1.276459e+00 
1.264422e+00 
1.252453e+00 
1.240554e+00 
1.228727e+00 
1.216973e+00 
1.205295e+00 
1.193694e+00 
1.182172e+00 
1.170732e+00 
1.159375e+00 
1.148103e+00 
1.136919e+00 
1.125825e+00 
1.114823e+00 
1.103915e+00 
1.093104e+00 
1.082393e+00 
1.071783e+00 
1.061277e+00 
1.050879e+00 
1.040590e+00 
1.030413e+00 
1.020352e+00 
1.010408e+00 
1.000586e+00 
9.908874e-01 
9.813161e-01 
9.718750e-01 
9.625672e-01 
9.533960e-01 
9.443646e-01 
9.354764e-01 
9.267348e-01 
9.181432e-01 
9.097051e-01 
9.014240e-01 
8.933035e-01 
8.853472e-01 
8.775587e-01 
8.699418e-01 
8.625000e-01 
8.552371e-01 
8.481569e-01 
8.412629e-01 
8.345591e-01 
8.280490e-01 
8.217364e-01 
8.156250e-01 
8.097184e-01 
8.040202e-01 
7.985341e-01 
7.932634e-01 
7.882118e-01 
7.833824e-01 
7.787787e-01 
7.744039e-01 
7.702609e-01 
7.663529e-01 
7.626826e-01 
7.592528e-01 
7.560662e-01 
7.531250e-01 
7.504316e-01 
7.479882e-01 
7.457966e-01 
7.438586e-01 
7.421758e-01 
7.407496e-01 
7.395810e-01 
7.386711e-01 
7.380207e-01 
7.376302e-01 
7.375000e-01 
7.376302e-01 
7.380207e-01 
7.386711e-01 
7.395810e-01 
7.407496e-01 
7.421758e-01 
7.438586e-01 
7.457966e-01 
7.479882e-01 
7.504316e-01 
7.531250e-01 
7.560662e-01 
7.592528e-01 
7.626826e-01 
7.663529e-01 
7.702609e-01 
7.744039e-01 
7.787787e-01 
7.833824e-01 
7.882118e-01 
7.932634e-01 
7.985341e-01 
8.040202e-01 
8.097184e-01 
8.156250e-01 
8.217364e-01 
8.280490e-01 
8.345591e-01 
8.412629e-01 
8.481569e-01 
8.552371e-01 
8.625000e-01 
8.699418e-01 
8.775587e-01 
8.853472e-01 
8.933035e-01 
9.014240e-01 
9.097051e-01 
9.181432e-01 
9.267348e-01 
9.354764e-01 
9.443646e-01 
9.533960e-01 
9.625672e-01 
9.718750e-01 
9.813161e-01 
9.908874e-01 
1.000586e+00 
1.353175e+00 
1.340628e+00 
1.328138e+00 
1.315706e+00 
1.303333e+00 
1.291021e+00 
1.278772e+00 
1.266588e+00 
1.254468e+00 
1.242417e+00 
1.230434e+00 
1.218523e+00 
1.206684e+00 
1.194920e+00 
1.183232e+00 
1.171622e+00 
1.160093e+00 
1.148647e+00 
1.137285e+00 
1.126009e+00 
1.114823e+00 
1.103728e+00 
1.092727e+00 
1.081822e+00 
1.071015e+00 
1.060309e+00 
1.049707e+00 
1.039211e+00 
1.028825e+00 
1.018550e+00 
1.008389e+00 
9.983468e-01 
9.884248e-01 
9.786264e-01 
9.689547e-01 
9.594129e-01 
9.500042e-01 
9.407320e-01 
9.315996e-01 
9.226103e-01 
9.137677e-01 
9.050753e-01 
8.965366e-01 
8.881553e-01 
8.799351e-01 
8.718796e-01 
8.639925e-01 
8.562777e-01 
8.487390e-01 
8.413802e-01 
8.342050e-01 
8.272175e-01 
8.204214e-01 
8.138205e-01 
8.074188e-01 
8.012200e-01 
7.952279e-01 
7.894463e-01 
7.838788e-01 
7.785293e-01 
7.734011e-01 
7.684980e-01 
7.638232e-01 
7.593801e-01 
7.551720e-01 
7.512020e-01 
7.474730e-01 
7.439880e-01 
7.407496e-01 
7.377604e-01 
7.350228e-01 
7.325390e-01 
7.303110e-01 
7.283407e-01 
7.266297e-01 
7.251795e-01 
7.239912e-01 
7.230660e-01 
7.224045e-01 
7.220074e-01 
7.218750e-01 
7.220074e-01 
7.224045e-01 
7.230660e-01 
7.239912e-01 
7.251795e-01 
7.266297e-01 
7.283407e-01 
7.303110e-01 
7.325390e-01 
7.350228e-01 
7.377604e-01 
7.407496e-01 
7.439880e-01 
7.474730e-01 
7.512020e-01 
7.551720e-01 
7.593801e-01 
7.638232e-01 
7.684980e-01 
7.734011e-01 
7.785293e-01 
7.838788e-01 
7.894463e-01 
7.952279e-01 
8.012200e-01 
8.074188e-01 
8.138205e-01 
8.204214e-01 
8.272175e-01 
8.342050e-01 
8.413802e-01 
8.487390e-01 
8.562777e-01 
8.639925e-01 
8.718796e-01 
8.799351e-01 
8.881553e-01 
8.965366e-01 
9.050753e-01 
9.137677e-01 
9.226103e-01 
9.315996e-01 
9.407320e-01 
9.500042e-01 
9.594129e-01 
9.689547e-01 
9.786264e-01 
9.884248e-01 
1.343952e+00 
1.331330e+00 
1.318763e+00 
1.306253e+00 
1.293802e+00 
1.281412e+00 
1.269082e+00 
1.256817e+00 
1.244616e+00 
1.232481e+00 
1.220415e+00 
1.208418e+00 
1.196494e+00 
1.184643e+00 
1.172868e+00 
1.161170e+00 
1.149551e+00 
1.138015e+00 
1.126562e+00 
1.115194e+00 
1.103915e+00 
1.092727e+00 
1.081631e+00 
1.070631e+00 
1.059728e+00 
1.048925e+00 
1.038226e+00 
1.027632e+00 
1.017146e+00 
1.006772e+00 
9.965119e-01 
9.863687e-01 
9.763456e-01 
9.664458e-01 
9.566722e-01 
9.470283e-01 
9.375172e-01 
9.281423e-01 
9.189071e-01 
9.098151e-01 
9.008697e-01 
8.920746e-01 
8.834335e-01 
8.749500e-01 
8.666280e-01 
8.584712e-01 
8.504835e-01 
8.426688e-01 
8.350309e-01 
8.275739e-01 
8.203017e-01 
8.132183e-01 
8.063276e-01 
7.996337e-01 
7.931405e-01 
7.868520e-01 
7.807722e-01 
7.749048e-01 
7.692539e-01 
7.638232e-01 
7.586164e-01 
7.536372e-01 
7.488892e-01 
7.443758e-01 
7.401006e-01 
7.360666e-01 
7.322771e-01 
7.287351e-01 
7.254433e-01 
7.224045e-01 
7.196212e-01 
7.170957e-01 
7.148301e-01 
7.128264e-01 
7.110862e-01 
7.096112e-01 
7.084026e-01 
7.074615e-01 
7.067886e-01 
7.063847e-01 
7.062500e-01 
7.063847e-01 
7.067886e-01 
7.074615e-01 
7.084026e-01 
7.096112e-01 
7.110862e-01 
7.128264e-01 
7.148301e-01 
7.170957e-01 
7.196212e-01 
7.224045e-01 
7.254433e-01 
7.287351e-01 
7.322771e-01 
7.360666e-01 
7.401006e-01 
7.443758e-01 
7.488892e-01 
7.536372e-01 
7.586164e-01 
7.638232e-01 
7.692539e-01 
7.749048e-01 
7.807722e-01 
7.868520e-01 
7.931405e-01 
7.996337e-01 
8.063276e-01 
8.132183e-01 
8.203017e-01 
8.275739e-01 
8.350309e-01 
8.426688e-01 
8.504835e-01 
8.584712e-01 
8.666280e-01 
8.749500e-01 
8.834335e-01 
8.920746e-01 
9.008697e-01 
9.098151e-01 
9.189071e-01 
9.281423e-01 
9.375172e-01 
9.470283e-01 
9.566722e-01 
9.664458e-01 
9.763456e-01 
1.334833e+00 
1.322135e+00 
1.309491e+00 
1.296904e+00 
1.284375e+00 
1.271905e+00 
1.259495e+00 
1.247148e+00 
1.234865e+00 
1.222647e+00 
1.210497e+00 
1.198416e+00 
1.186405e+00 
1.174467e+00 
1.162604e+00 
1.150817e+00 
1.139109e+00 
1.127481e+00 
1.115937e+00 
1.104477e+00 
1.093104e+00 
1.081822e+00 
1.070631e+00 
1.059534e+00 
1.048534e+00 
1.037634e+00 
1.026836e+00 
1.016143e+00 
1.005558e+00 
9.950827e-01 
9.847213e-01 
9.744763e-01 
9.643508e-01 
9.543481e-01 
9.444713e-01 
9.347236e-01 
9.251085e-01 
9.156294e-01 
9.062897e-01 
8.970931e-01 
8.880431e-01 
8.791435e-01 
8.703980e-01 
8.618104e-01 
8.533846e-01 
8.451245e-01 
8.370340e-01 
8.291171e-01 
8.213779e-01 
8.138205e-01 
8.064489e-01 
7.992673e-01 
7.922798e-01 
7.854904e-01 
7.789034e-01 
7.725229e-01 
7.663529e-01 
7.603975e-01 
7.546606e-01 
7.491464e-01 
7.438586e-01 
7.388012e-01 
7.339778e-01 
7.293920e-01 
7.250475e-01 
7.209476e-01 
7.170957e-01 
7.134947e-01 
7.101479e-01 
7.070578e-01 
7.042273e-01 
7.016586e-01 
6.993542e-01 
6.973159e-01 
6.955456e-01 
6.940450e-01 
6.928153e-01 
6.918577e-01 
6.911731e-01 
6.907621e-01 
6.906250e-01 
6.907621e-01 
6.911731e-01 
6.918577e-01 
6.928153e-01 
6.940450e-01 
6.955456e-01 
6.973159e-01 
6.993542e-01 
7.016586e-01 
7.042273e-01 
7.070578e-01 
7.101479e-01 
7.134947e-01 
7.170957e-01 
7.209476e-01 
7.250475e-01 
7.293920e-01 
7.339778e-01 
7.388012e-01 
7.438586e-01 
7.491464e-01 
7.546606e-01 
7.603975e-01 
7.663529e-01 
7.725229e-01 
7.789034e-01 
7.854904e-01 
7.922798e-01 
7.992673e-01 
8.064489e-01 
8.138205e-01 
8.213779e-01 
8.291171e-01 
8.370340e-01 
8.451245e-01 
8.533846e-01 
8.618104e-01 
8.703980e-01 
8.791435e-01 
8.880431e-01 
8.970931e-01 
9.062897e-01 
9.156294e-01 
9.251085e-01 
9.347236e-01 
9.444713e-01 
9.543481e-01 
9.643508e-01 
1.325819e+00 
1.313045e+00 
1.300325e+00 
1.287661e+00 
1.275053e+00 
1.262503e+00 
1.250013e+00 
1.237585e+00 
1.225219e+00 
1.212918e+00 
1.200683e+00 
1.188517e+00 
1.176420e+00 
1.164394e+00 
1.152443e+00 
1.140567e+00 
1.128768e+00 
1.117049e+00 
1.105412e+00 
1.093859e+00 
1.082393e+00 
1.071015e+00 
1.059728e+00 
1.048534e+00 
1.037437e+00 
1.026438e+00 
1.015541e+00 
1.004747e+00 
9.940608e-01 
9.834842e-01 
9.730203e-01 
9.626722e-01 
9.524431e-01 
9.423360e-01 
9.323544e-01 
9.225016e-01 
9.127809e-01 
9.031958e-01 
8.937500e-01 
8.844470e-01 
8.752907e-01 
8.662846e-01 
8.574328e-01 
8.487390e-01 
8.402073e-01 
8.318417e-01 
8.236462e-01 
8.156250e-01 
8.077822e-01 
8.001221e-01 
7.926488e-01 
7.853666e-01 
7.782797e-01 
7.713926e-01 
7.647093e-01 
7.582343e-01 
7.519716e-01 
7.459257e-01 
7.401006e-01 
7.345004e-01 
7.291293e-01 
7.239912e-01 
7.190901e-01 
7.144297e-01 
7.100137e-01 
7.058458e-01 
7.019294e-01 
6.982676e-01 
6.948638e-01 
6.917208e-01 
6.888414e-01 
6.862282e-01 
6.838835e-01 
6.818094e-01 
6.800080e-01 
6.784808e-01 
6.772293e-01 
6.762547e-01 
6.755579e-01 
6.751395e-01 
6.750000e-01 
6.751395e-01 
6.755579e-01 
6.762547e-01 
6.772293e-01 
6.784808e-01 
6.800080e-01 
6.818094e-01 
6.838835e-01 
6.862282e-01 
6.888414e-01 
6.917208e-01 
6.948638e-01 
6.982676e-01 
7.019294e-01 
7.058458e-01 
7.100137e-01 
7.144297e-01 
7.190901e-01 
7.239912e-01 
7.291293e-01 
7.345004e-01 
7.401006e-01 
7.459257e-01 
7.519716e-01 
7.582343e-01 
7.647093e-01 
7.713926e-01 
7.782797e-01 
7.853666e-01 
7.926488e-01 
8.001221e-01 
8.077822e-01 
8.156250e-01 
8.236462e-01 
8.318417e-01 
8.402073e-01 
8.487390e-01 
8.574328e-01 
8.662846e-01 
8.752907e-01 
8.844470e-01 
8.937500e-01 
9.031958e-01 
9.127809e-01 
9.225016e-01 
9.323544e-01 
9.423360e-01 
9.524431e-01 
1.316913e+00 
1.304064e+00 
1.291267e+00 
1.278525e+00 
1.265838e+00 
1.253209e+00 
1.240639e+00 
1.228128e+00 
1.215680e+00 
1.203296e+00 
1.190976e+00 
1.178724e+00 
1.166540e+00 
1.154427e+00 
1.142387e+00 
1.130421e+00 
1.118532e+00 
1.106721e+00 
1.094991e+00 
1.083344e+00 
1.071783e+00 
1.060309e+00 
1.048925e+00 
1.037634e+00 
1.026438e+00 
1.015340e+00 
1.004342e+00 
9.934473e-01 
9.826587e-01 
9.719792e-01 
9.614116e-01 
9.509592e-01 
9.406250e-01 
9.304123e-01 
9.203245e-01 
9.103649e-01 
9.005370e-01 
8.908444e-01 
8.812906e-01 
8.718796e-01 
8.626149e-01 
8.535005e-01 
8.445403e-01 
8.357383e-01 
8.270987e-01 
8.186254e-01 
8.103227e-01 
8.021949e-01 
7.942461e-01 
7.864809e-01 
7.789034e-01 
7.715182e-01 
7.643296e-01 
7.573421e-01 
7.505601e-01 
7.439880e-01 
7.376302e-01 
7.314912e-01 
7.255752e-01 
7.198866e-01 
7.144297e-01 
7.092085e-01 
7.042273e-01 
6.994899e-01 
6.950002e-01 
6.907621e-01 
6.867790e-01 
6.830544e-01 
6.795917e-01 
6.763940e-01 
6.734641e-01 
6.708047e-01 
6.684183e-01 
6.663073e-01 
6.644735e-01 
6.629188e-01 
6.616447e-01 
6.606525e-01 
6.599430e-01 
6.595170e-01 
6.593750e-01 
6.595170e-01 
6.599430e-01 
6.606525e-01 
6.616447e-01 
6.629188e-01 
6.644735e-01 
6.663073e-01 
6.684183e-01 
6.708047e-01 
6.734641e-01 
6.763940e-01 
6.795917e-01 
6.830544e-01 
6.867790e-01 
6.907621e-01 
6.950002e-01 
6.994899e-01 
7.042273e-01 
7.092085e-01 
7.144297e-01 
7.198866e-01 
7.255752e-01 
7.314912e-01 
7.376302e-01 
7.439880e-01 
7.505601e-01 
7.573421e-01 
7.643296e-01 
7.715182e-01 
7.789034e-01 
7.864809e-01 
7.942461e-01 
8.021949e-01 
8.103227e-01 
8.186254e-01 
8.270987e-01 
8.357383e-01 
8.445403e-01 
8.535005e-01 
8.626149e-01 
8.718796e-01 
8.812906e-01 
8.908444e-01 
9.005370e-01 
9.103649e-01 
9.203245e-01 
9.304123e-01 
9.406250e-01 
1.308116e+00 
1.295191e+00 
1.282318e+00 
1.269498e+00 
1.256733e+00 
1.244024e+00 
1.231373e+00 
1.218781e+00 
1.206250e+00 
1.193782e+00 
1.181377e+00 
1.169039e+00 
1.156768e+00 
1.144567e+00 
1.132438e+00 
1.120382e+00 
1.108401e+00 
1.096498e+00 
1.084675e+00 
1.072934e+00 
1.061277e+00 
1.049707e+00 
1.038226e+00 
1.026836e+00 
1.015541e+00 
1.004342e+00 
9.932427e-01 
9.822458e-01 
9.713541e-01 
9.605705e-01 
9.498981e-01 
9.393400e-01 
9.288995e-01 
9.185798e-01 
9.083842e-01 
8.983164e-01 
8.883797e-01 
8.785778e-01 
8.689145e-01 
8.593934e-01 
8.500186e-01 
8.407939e-01 
8.317234e-01 
8.228111e-01 
8.140613e-01 
8.054782e-01 
7.970660e-01 
7.888292e-01 
7.807722e-01 
7.728994e-01 
7.652153e-01 
7.577246e-01 
7.504316e-01 
7.433412e-01 
7.364578e-01 
7.297860e-01 
7.233304e-01 
7.170957e-01 
7.110862e-01 
7.053066e-01 
6.997613e-01 
6.944545e-01 
6.893906e-01 
6.845737e-01 
6.800080e-01 
6.756973e-01 
6.716454e-01 
6.678559e-01 
6.643323e-01 
6.610779e-01 
6.580956e-01 
6.553885e-01 
6.529590e-01 
6.508096e-01 
6.489424e-01 
6.473592e-01 
6.460616e-01 
6.450511e-01 
6.443285e-01 
6.438947e-01 
6.437500e-01 
6.438947e-01 
6.443285e-01 
6.450511e-01 
6.460616e-01 
6.473592e-01 
6.489424e-01 
6.508096e-01 
6.529590e-01 
6.553885e-01 
6.580956e-01 
6.610779e-01 
6.643323e-01 
6.678559e-01 
6.716454e-01 
6.756973e-01 
6.800080e-01 
6.845737e-01 
6.893906e-01 
6.944545e-01 
6.997613e-01 
7.053066e-01 
7.110862e-01 
7.170957e-01 
7.233304e-01 
7.297860e-01 
7.364578e-01 
7.433412e-01 
7.504316e-01 
7.577246e-01 
7.652153e-01 
7.728994e-01 
7.807722e-01 
7.888292e-01 
7.970660e-01 
8.054782e-01 
8.140613e-01 
8.228111e-01 
8.317234e-01 
8.407939e-01 
8.500186e-01 
8.593934e-01 
8.689145e-01 
8.785778e-01 
8.883797e-01 
8.983164e-01 
9.083842e-01 
9.185798e-01 
9.288995e-01 
1.299430e+00 
1.286429e+00 
1.273480e+00 
1.260582e+00 